<LesHouchesEvents version="3.0">
<!--
file generated with POWHEG-BOX-V2
SVN status Begin
/afs/cern.ch/work/m/melu/work/ttt/CMSSW_12_4_8/src/genproductions/bin/Powheg/my_tt/POWHEG-BOX/hvq
no svn repository found
/afs/cern.ch/work/m/melu/work/ttt/CMSSW_12_4_8/src/genproductions/bin/Powheg/my_tt/POWHEG-BOX
no svn repository found
SVN status End
Process: hvq
Input file powheg.input contained:
numevts 100
iseed 10
ih1 1
ih2 1
ebeam1 6800
ebeam2 6800
lhans1 325300
lhans2 325300
facscfact 1
renscfact 1
#withnegweights 1 1
use-old-grid 1
use-old-ubound 1
ncall1 50000
itmx1 5
ncall2 500000
itmx2 5
foldcsi 1
foldy 1
foldphi 1
nubound 500000
iymax 1
xupbound 2

# User settings
topdecaymode 22200
semileptonic 0
hdamp 250

tdec/wmass 80.4
tdec/wwidth 2.085
tdec/bmass 5.06
tdec/elbranching 0.1083
tdec/emass 0.00051
tdec/mumass 0.1057
tdec/taumass 1.777
tdec/dmass 0.21
tdec/umass 0.21
tdec/smass 0.35
tdec/cmass 1.525
tdec/sin2cabibbo 0.051

# User settings
qmass 172.5
tdec/twidth 1.311


#manyseeds 1

#parallelstage 4

#xgriditeration 1 1


#pdfreweight 0

#storeinfo_rwgt 0
#rwl_group_events 2000
#lhapdf6maxsets 50
#rwl_file '-'
#rwl_format_rwgt 1

pdfreweight 0
storeinfo_rwgt 0

rwl_group_events 2000
lhapdf6maxsets 50
rwl_file 'pwg-rwl.dat'
rwl_format_rwgt 1
End of powheg.input content
PDF package: lha
 Random number generator initialized with:           10             0             0
-->
<header>
<initrwgt>
<weightgroup name='scale_variation' combine='envelope' >
<weight id='1001' > lhapdf=325300 renscfact=1d0 facscfact=1d0 </weight>
<weight id='1002' > lhapdf=325300 renscfact=1d0 facscfact=2d0 </weight>
<weight id='1003' > lhapdf=325300 renscfact=1d0 facscfact=0.5d0 </weight>
<weight id='1004' > lhapdf=325300 renscfact=2d0 facscfact=1d0 </weight>
<weight id='1005' > lhapdf=325300 renscfact=2d0 facscfact=2d0 </weight>
<weight id='1006' > lhapdf=325300 renscfact=2d0 facscfact=0.5d0 </weight>
<weight id='1007' > lhapdf=325300 renscfact=0.5d0 facscfact=1d0 </weight>
<weight id='1008' > lhapdf=325300 renscfact=0.5d0 facscfact=2d0 </weight>
<weight id='1009' > lhapdf=325300 renscfact=0.5d0 facscfact=0.5d0 </weight>
</weightgroup>
<weightgroup name='PDF_variation1' combine='hessian' >
<weight id='2000' > lhapdf=325300 </weight>
<weight id='2001' > lhapdf=325301 </weight>
<weight id='2002' > lhapdf=325302 </weight>
<weight id='2003' > lhapdf=325303 </weight>
<weight id='2004' > lhapdf=325304 </weight>
<weight id='2005' > lhapdf=325305 </weight>
<weight id='2006' > lhapdf=325306 </weight>
<weight id='2007' > lhapdf=325307 </weight>
<weight id='2008' > lhapdf=325308 </weight>
<weight id='2009' > lhapdf=325309 </weight>
<weight id='2010' > lhapdf=325310 </weight>
<weight id='2011' > lhapdf=325311 </weight>
<weight id='2012' > lhapdf=325312 </weight>
<weight id='2013' > lhapdf=325313 </weight>
<weight id='2014' > lhapdf=325314 </weight>
<weight id='2015' > lhapdf=325315 </weight>
<weight id='2016' > lhapdf=325316 </weight>
<weight id='2017' > lhapdf=325317 </weight>
<weight id='2018' > lhapdf=325318 </weight>
<weight id='2019' > lhapdf=325319 </weight>
<weight id='2020' > lhapdf=325320 </weight>
<weight id='2021' > lhapdf=325321 </weight>
<weight id='2022' > lhapdf=325322 </weight>
<weight id='2023' > lhapdf=325323 </weight>
<weight id='2024' > lhapdf=325324 </weight>
<weight id='2025' > lhapdf=325325 </weight>
<weight id='2026' > lhapdf=325326 </weight>
<weight id='2027' > lhapdf=325327 </weight>
<weight id='2028' > lhapdf=325328 </weight>
<weight id='2029' > lhapdf=325329 </weight>
<weight id='2030' > lhapdf=325330 </weight>
<weight id='2031' > lhapdf=325331 </weight>
<weight id='2032' > lhapdf=325332 </weight>
<weight id='2033' > lhapdf=325333 </weight>
<weight id='2034' > lhapdf=325334 </weight>
<weight id='2035' > lhapdf=325335 </weight>
<weight id='2036' > lhapdf=325336 </weight>
<weight id='2037' > lhapdf=325337 </weight>
<weight id='2038' > lhapdf=325338 </weight>
<weight id='2039' > lhapdf=325339 </weight>
<weight id='2040' > lhapdf=325340 </weight>
<weight id='2041' > lhapdf=325341 </weight>
<weight id='2042' > lhapdf=325342 </weight>
<weight id='2043' > lhapdf=325343 </weight>
<weight id='2044' > lhapdf=325344 </weight>
<weight id='2045' > lhapdf=325345 </weight>
<weight id='2046' > lhapdf=325346 </weight>
<weight id='2047' > lhapdf=325347 </weight>
<weight id='2048' > lhapdf=325348 </weight>
<weight id='2049' > lhapdf=325349 </weight>
<weight id='2050' > lhapdf=325350 </weight>
<weight id='2051' > lhapdf=325351 </weight>
<weight id='2052' > lhapdf=325352 </weight>
<weight id='2053' > lhapdf=325353 </weight>
<weight id='2054' > lhapdf=325354 </weight>
<weight id='2055' > lhapdf=325355 </weight>
<weight id='2056' > lhapdf=325356 </weight>
<weight id='2057' > lhapdf=325357 </weight>
<weight id='2058' > lhapdf=325358 </weight>
<weight id='2059' > lhapdf=325359 </weight>
<weight id='2060' > lhapdf=325360 </weight>
<weight id='2061' > lhapdf=325361 </weight>
<weight id='2062' > lhapdf=325362 </weight>
<weight id='2063' > lhapdf=325363 </weight>
<weight id='2064' > lhapdf=325364 </weight>
<weight id='2065' > lhapdf=325365 </weight>
<weight id='2066' > lhapdf=325366 </weight>
<weight id='2067' > lhapdf=325367 </weight>
<weight id='2068' > lhapdf=325368 </weight>
<weight id='2069' > lhapdf=325369 </weight>
<weight id='2070' > lhapdf=325370 </weight>
<weight id='2071' > lhapdf=325371 </weight>
<weight id='2072' > lhapdf=325372 </weight>
<weight id='2073' > lhapdf=325373 </weight>
<weight id='2074' > lhapdf=325374 </weight>
<weight id='2075' > lhapdf=325375 </weight>
<weight id='2076' > lhapdf=325376 </weight>
<weight id='2077' > lhapdf=325377 </weight>
<weight id='2078' > lhapdf=325378 </weight>
<weight id='2079' > lhapdf=325379 </weight>
<weight id='2080' > lhapdf=325380 </weight>
<weight id='2081' > lhapdf=325381 </weight>
<weight id='2082' > lhapdf=325382 </weight>
<weight id='2083' > lhapdf=325383 </weight>
<weight id='2084' > lhapdf=325384 </weight>
<weight id='2085' > lhapdf=325385 </weight>
<weight id='2086' > lhapdf=325386 </weight>
<weight id='2087' > lhapdf=325387 </weight>
<weight id='2088' > lhapdf=325388 </weight>
<weight id='2089' > lhapdf=325389 </weight>
<weight id='2090' > lhapdf=325390 </weight>
<weight id='2091' > lhapdf=325391 </weight>
<weight id='2092' > lhapdf=325392 </weight>
<weight id='2093' > lhapdf=325393 </weight>
<weight id='2094' > lhapdf=325394 </weight>
<weight id='2095' > lhapdf=325395 </weight>
<weight id='2096' > lhapdf=325396 </weight>
<weight id='2097' > lhapdf=325397 </weight>
<weight id='2098' > lhapdf=325398 </weight>
<weight id='2099' > lhapdf=325399 </weight>
<weight id='2100' > lhapdf=325400 </weight>
<weight id='2101' > lhapdf=325401 </weight>
<weight id='2102' > lhapdf=325402 </weight>
<weight id='2200' > lhapdf=306000 </weight>
<weight id='2201' > lhapdf=322500 </weight>
<weight id='2202' > lhapdf=322700 </weight>
<weight id='2203' > lhapdf=322900 </weight>
<weight id='2204' > lhapdf=323100 </weight>
<weight id='2205' > lhapdf=323300 </weight>
<weight id='2206' > lhapdf=323500 </weight>
<weight id='2207' > lhapdf=323700 </weight>
<weight id='2208' > lhapdf=323900 </weight>
<weight id='2300' > lhapdf=305800 </weight>
<weight id='2301' > lhapdf=305801 </weight>
<weight id='2302' > lhapdf=305802 </weight>
<weight id='2303' > lhapdf=305803 </weight>
<weight id='2304' > lhapdf=305804 </weight>
<weight id='2305' > lhapdf=305805 </weight>
<weight id='2306' > lhapdf=305806 </weight>
<weight id='2307' > lhapdf=305807 </weight>
<weight id='2308' > lhapdf=305808 </weight>
<weight id='2309' > lhapdf=305809 </weight>
<weight id='2310' > lhapdf=305810 </weight>
<weight id='2311' > lhapdf=305811 </weight>
<weight id='2312' > lhapdf=305812 </weight>
<weight id='2313' > lhapdf=305813 </weight>
<weight id='2314' > lhapdf=305814 </weight>
<weight id='2315' > lhapdf=305815 </weight>
<weight id='2316' > lhapdf=305816 </weight>
<weight id='2317' > lhapdf=305817 </weight>
<weight id='2318' > lhapdf=305818 </weight>
<weight id='2319' > lhapdf=305819 </weight>
<weight id='2320' > lhapdf=305820 </weight>
<weight id='2321' > lhapdf=305821 </weight>
<weight id='2322' > lhapdf=305822 </weight>
<weight id='2323' > lhapdf=305823 </weight>
<weight id='2324' > lhapdf=305824 </weight>
<weight id='2325' > lhapdf=305825 </weight>
<weight id='2326' > lhapdf=305826 </weight>
<weight id='2327' > lhapdf=305827 </weight>
<weight id='2328' > lhapdf=305828 </weight>
<weight id='2329' > lhapdf=305829 </weight>
<weight id='2330' > lhapdf=305830 </weight>
<weight id='2331' > lhapdf=305831 </weight>
<weight id='2332' > lhapdf=305832 </weight>
<weight id='2333' > lhapdf=305833 </weight>
<weight id='2334' > lhapdf=305834 </weight>
<weight id='2335' > lhapdf=305835 </weight>
<weight id='2336' > lhapdf=305836 </weight>
<weight id='2337' > lhapdf=305837 </weight>
<weight id='2338' > lhapdf=305838 </weight>
<weight id='2339' > lhapdf=305839 </weight>
<weight id='2340' > lhapdf=305840 </weight>
<weight id='2341' > lhapdf=305841 </weight>
<weight id='2342' > lhapdf=305842 </weight>
<weight id='2343' > lhapdf=305843 </weight>
<weight id='2344' > lhapdf=305844 </weight>
<weight id='2345' > lhapdf=305845 </weight>
<weight id='2346' > lhapdf=305846 </weight>
<weight id='2347' > lhapdf=305847 </weight>
<weight id='2348' > lhapdf=305848 </weight>
<weight id='2349' > lhapdf=305849 </weight>
<weight id='2350' > lhapdf=305850 </weight>
<weight id='2351' > lhapdf=305851 </weight>
<weight id='2352' > lhapdf=305852 </weight>
<weight id='2353' > lhapdf=305853 </weight>
<weight id='2354' > lhapdf=305854 </weight>
<weight id='2355' > lhapdf=305855 </weight>
<weight id='2356' > lhapdf=305856 </weight>
<weight id='2357' > lhapdf=305857 </weight>
<weight id='2358' > lhapdf=305858 </weight>
<weight id='2359' > lhapdf=305859 </weight>
<weight id='2360' > lhapdf=305860 </weight>
<weight id='2361' > lhapdf=305861 </weight>
<weight id='2362' > lhapdf=305862 </weight>
<weight id='2363' > lhapdf=305863 </weight>
<weight id='2364' > lhapdf=305864 </weight>
<weight id='2365' > lhapdf=305865 </weight>
<weight id='2366' > lhapdf=305866 </weight>
<weight id='2367' > lhapdf=305867 </weight>
<weight id='2368' > lhapdf=305868 </weight>
<weight id='2369' > lhapdf=305869 </weight>
<weight id='2370' > lhapdf=305870 </weight>
<weight id='2371' > lhapdf=305871 </weight>
<weight id='2372' > lhapdf=305872 </weight>
<weight id='2373' > lhapdf=305873 </weight>
<weight id='2374' > lhapdf=305874 </weight>
<weight id='2375' > lhapdf=305875 </weight>
<weight id='2376' > lhapdf=305876 </weight>
<weight id='2377' > lhapdf=305877 </weight>
<weight id='2378' > lhapdf=305878 </weight>
<weight id='2379' > lhapdf=305879 </weight>
<weight id='2380' > lhapdf=305880 </weight>
<weight id='2381' > lhapdf=305881 </weight>
<weight id='2382' > lhapdf=305882 </weight>
<weight id='2383' > lhapdf=305883 </weight>
<weight id='2384' > lhapdf=305884 </weight>
<weight id='2385' > lhapdf=305885 </weight>
<weight id='2386' > lhapdf=305886 </weight>
<weight id='2387' > lhapdf=305887 </weight>
<weight id='2388' > lhapdf=305888 </weight>
<weight id='2389' > lhapdf=305889 </weight>
<weight id='2390' > lhapdf=305890 </weight>
<weight id='2391' > lhapdf=305891 </weight>
<weight id='2392' > lhapdf=305892 </weight>
<weight id='2393' > lhapdf=305893 </weight>
<weight id='2394' > lhapdf=305894 </weight>
<weight id='2395' > lhapdf=305895 </weight>
<weight id='2396' > lhapdf=305896 </weight>
<weight id='2397' > lhapdf=305897 </weight>
<weight id='2398' > lhapdf=305898 </weight>
<weight id='2399' > lhapdf=305899 </weight>
<weight id='2400' > lhapdf=305900 </weight>
<weight id='2401' > lhapdf=305901 </weight>
<weight id='2402' > lhapdf=305902 </weight>
<weight id='2500' > lhapdf=303200 </weight>
<weight id='2501' > lhapdf=292200 </weight>
<weight id='2600' > lhapdf=331600 </weight>
<weight id='2601' > lhapdf=331601 </weight>
<weight id='2602' > lhapdf=331602 </weight>
<weight id='2603' > lhapdf=331603 </weight>
<weight id='2604' > lhapdf=331604 </weight>
<weight id='2605' > lhapdf=331605 </weight>
<weight id='2606' > lhapdf=331606 </weight>
<weight id='2607' > lhapdf=331607 </weight>
<weight id='2608' > lhapdf=331608 </weight>
<weight id='2609' > lhapdf=331609 </weight>
<weight id='2610' > lhapdf=331610 </weight>
<weight id='2611' > lhapdf=331611 </weight>
<weight id='2612' > lhapdf=331612 </weight>
<weight id='2613' > lhapdf=331613 </weight>
<weight id='2614' > lhapdf=331614 </weight>
<weight id='2615' > lhapdf=331615 </weight>
<weight id='2616' > lhapdf=331616 </weight>
<weight id='2617' > lhapdf=331617 </weight>
<weight id='2618' > lhapdf=331618 </weight>
<weight id='2619' > lhapdf=331619 </weight>
<weight id='2620' > lhapdf=331620 </weight>
<weight id='2621' > lhapdf=331621 </weight>
<weight id='2622' > lhapdf=331622 </weight>
<weight id='2623' > lhapdf=331623 </weight>
<weight id='2624' > lhapdf=331624 </weight>
<weight id='2625' > lhapdf=331625 </weight>
<weight id='2626' > lhapdf=331626 </weight>
<weight id='2627' > lhapdf=331627 </weight>
<weight id='2628' > lhapdf=331628 </weight>
<weight id='2629' > lhapdf=331629 </weight>
<weight id='2630' > lhapdf=331630 </weight>
<weight id='2631' > lhapdf=331631 </weight>
<weight id='2632' > lhapdf=331632 </weight>
<weight id='2633' > lhapdf=331633 </weight>
<weight id='2634' > lhapdf=331634 </weight>
<weight id='2635' > lhapdf=331635 </weight>
<weight id='2636' > lhapdf=331636 </weight>
<weight id='2637' > lhapdf=331637 </weight>
<weight id='2638' > lhapdf=331638 </weight>
<weight id='2639' > lhapdf=331639 </weight>
<weight id='2640' > lhapdf=331640 </weight>
<weight id='2641' > lhapdf=331641 </weight>
<weight id='2642' > lhapdf=331642 </weight>
<weight id='2643' > lhapdf=331643 </weight>
<weight id='2644' > lhapdf=331644 </weight>
<weight id='2645' > lhapdf=331645 </weight>
<weight id='2646' > lhapdf=331646 </weight>
<weight id='2647' > lhapdf=331647 </weight>
<weight id='2648' > lhapdf=331648 </weight>
<weight id='2649' > lhapdf=331649 </weight>
<weight id='2650' > lhapdf=331650 </weight>
<weight id='2651' > lhapdf=331651 </weight>
<weight id='2652' > lhapdf=331652 </weight>
<weight id='2700' > lhapdf=332700 </weight>
<weight id='2701' > lhapdf=332900 </weight>
<weight id='2702' > lhapdf=333100 </weight>
<weight id='2703' > lhapdf=333300 </weight>
<weight id='2704' > lhapdf=333500 </weight>
<weight id='2705' > lhapdf=333700 </weight>
<weight id='2800' > lhapdf=332300 </weight>
<weight id='4000' > lhapdf=14000 </weight>
<weight id='4001' > lhapdf=14001 </weight>
<weight id='4002' > lhapdf=14002 </weight>
<weight id='4003' > lhapdf=14003 </weight>
<weight id='4004' > lhapdf=14004 </weight>
<weight id='4005' > lhapdf=14005 </weight>
<weight id='4006' > lhapdf=14006 </weight>
<weight id='4007' > lhapdf=14007 </weight>
<weight id='4008' > lhapdf=14008 </weight>
<weight id='4009' > lhapdf=14009 </weight>
<weight id='4010' > lhapdf=14010 </weight>
<weight id='4011' > lhapdf=14011 </weight>
<weight id='4012' > lhapdf=14012 </weight>
<weight id='4013' > lhapdf=14013 </weight>
<weight id='4014' > lhapdf=14014 </weight>
<weight id='4015' > lhapdf=14015 </weight>
<weight id='4016' > lhapdf=14016 </weight>
<weight id='4017' > lhapdf=14017 </weight>
<weight id='4018' > lhapdf=14018 </weight>
<weight id='4019' > lhapdf=14019 </weight>
<weight id='4020' > lhapdf=14020 </weight>
<weight id='4021' > lhapdf=14021 </weight>
<weight id='4022' > lhapdf=14022 </weight>
<weight id='4023' > lhapdf=14023 </weight>
<weight id='4024' > lhapdf=14024 </weight>
<weight id='4025' > lhapdf=14025 </weight>
<weight id='4026' > lhapdf=14026 </weight>
<weight id='4027' > lhapdf=14027 </weight>
<weight id='4028' > lhapdf=14028 </weight>
<weight id='4029' > lhapdf=14029 </weight>
<weight id='4030' > lhapdf=14030 </weight>
<weight id='4031' > lhapdf=14031 </weight>
<weight id='4032' > lhapdf=14032 </weight>
<weight id='4033' > lhapdf=14033 </weight>
<weight id='4034' > lhapdf=14034 </weight>
<weight id='4035' > lhapdf=14035 </weight>
<weight id='4036' > lhapdf=14036 </weight>
<weight id='4037' > lhapdf=14037 </weight>
<weight id='4038' > lhapdf=14038 </weight>
<weight id='4039' > lhapdf=14039 </weight>
<weight id='4040' > lhapdf=14040 </weight>
<weight id='4041' > lhapdf=14041 </weight>
<weight id='4042' > lhapdf=14042 </weight>
<weight id='4043' > lhapdf=14043 </weight>
<weight id='4044' > lhapdf=14044 </weight>
<weight id='4045' > lhapdf=14045 </weight>
<weight id='4046' > lhapdf=14046 </weight>
<weight id='4047' > lhapdf=14047 </weight>
<weight id='4048' > lhapdf=14048 </weight>
<weight id='4049' > lhapdf=14049 </weight>
<weight id='4050' > lhapdf=14050 </weight>
<weight id='4051' > lhapdf=14051 </weight>
<weight id='4052' > lhapdf=14052 </weight>
<weight id='4053' > lhapdf=14053 </weight>
<weight id='4054' > lhapdf=14054 </weight>
<weight id='4055' > lhapdf=14055 </weight>
<weight id='4056' > lhapdf=14056 </weight>
<weight id='4057' > lhapdf=14057 </weight>
<weight id='4058' > lhapdf=14058 </weight>
<weight id='4100' > lhapdf=14066 </weight>
<weight id='4101' > lhapdf=14067 </weight>
<weight id='4102' > lhapdf=14069 </weight>
<weight id='4103' > lhapdf=14070 </weight>
<weight id='4200' > lhapdf=14100 </weight>
<weight id='4201' > lhapdf=14101 </weight>
<weight id='4202' > lhapdf=14102 </weight>
<weight id='4203' > lhapdf=14103 </weight>
<weight id='4204' > lhapdf=14104 </weight>
<weight id='4205' > lhapdf=14105 </weight>
<weight id='4206' > lhapdf=14106 </weight>
<weight id='4207' > lhapdf=14107 </weight>
<weight id='4208' > lhapdf=14108 </weight>
<weight id='4209' > lhapdf=14109 </weight>
<weight id='4210' > lhapdf=14110 </weight>
<weight id='4211' > lhapdf=14111 </weight>
<weight id='4212' > lhapdf=14112 </weight>
<weight id='4213' > lhapdf=14113 </weight>
<weight id='4214' > lhapdf=14114 </weight>
<weight id='4215' > lhapdf=14115 </weight>
<weight id='4216' > lhapdf=14116 </weight>
<weight id='4217' > lhapdf=14117 </weight>
<weight id='4218' > lhapdf=14118 </weight>
<weight id='4219' > lhapdf=14119 </weight>
<weight id='4220' > lhapdf=14120 </weight>
<weight id='4221' > lhapdf=14121 </weight>
<weight id='4222' > lhapdf=14122 </weight>
<weight id='4223' > lhapdf=14123 </weight>
<weight id='4224' > lhapdf=14124 </weight>
<weight id='4225' > lhapdf=14125 </weight>
<weight id='4226' > lhapdf=14126 </weight>
<weight id='4227' > lhapdf=14127 </weight>
<weight id='4228' > lhapdf=14128 </weight>
<weight id='4229' > lhapdf=14129 </weight>
<weight id='4230' > lhapdf=14130 </weight>
<weight id='4231' > lhapdf=14131 </weight>
<weight id='4232' > lhapdf=14132 </weight>
<weight id='4233' > lhapdf=14133 </weight>
<weight id='4234' > lhapdf=14134 </weight>
<weight id='4235' > lhapdf=14135 </weight>
<weight id='4236' > lhapdf=14136 </weight>
<weight id='4237' > lhapdf=14137 </weight>
<weight id='4238' > lhapdf=14138 </weight>
<weight id='4239' > lhapdf=14139 </weight>
<weight id='4240' > lhapdf=14140 </weight>
<weight id='4241' > lhapdf=14141 </weight>
<weight id='4242' > lhapdf=14142 </weight>
<weight id='4243' > lhapdf=14143 </weight>
<weight id='4244' > lhapdf=14144 </weight>
<weight id='4245' > lhapdf=14145 </weight>
<weight id='4246' > lhapdf=14146 </weight>
<weight id='4247' > lhapdf=14147 </weight>
<weight id='4248' > lhapdf=14148 </weight>
<weight id='4249' > lhapdf=14149 </weight>
<weight id='4250' > lhapdf=14150 </weight>
<weight id='4251' > lhapdf=14151 </weight>
<weight id='4252' > lhapdf=14152 </weight>
<weight id='4253' > lhapdf=14153 </weight>
<weight id='4254' > lhapdf=14154 </weight>
<weight id='4255' > lhapdf=14155 </weight>
<weight id='4256' > lhapdf=14156 </weight>
<weight id='4257' > lhapdf=14157 </weight>
<weight id='4258' > lhapdf=14158 </weight>
<weight id='4300' > lhapdf=14200 </weight>
<weight id='4301' > lhapdf=14300 </weight>
<weight id='5000' > lhapdf=27400 </weight>
<weight id='5001' > lhapdf=27401 </weight>
<weight id='5002' > lhapdf=27402 </weight>
<weight id='5003' > lhapdf=27403 </weight>
<weight id='5004' > lhapdf=27404 </weight>
<weight id='5005' > lhapdf=27405 </weight>
<weight id='5006' > lhapdf=27406 </weight>
<weight id='5007' > lhapdf=27407 </weight>
<weight id='5008' > lhapdf=27408 </weight>
<weight id='5009' > lhapdf=27409 </weight>
<weight id='5010' > lhapdf=27410 </weight>
<weight id='5011' > lhapdf=27411 </weight>
<weight id='5012' > lhapdf=27412 </weight>
<weight id='5013' > lhapdf=27413 </weight>
<weight id='5014' > lhapdf=27414 </weight>
<weight id='5015' > lhapdf=27415 </weight>
<weight id='5016' > lhapdf=27416 </weight>
<weight id='5017' > lhapdf=27417 </weight>
<weight id='5018' > lhapdf=27418 </weight>
<weight id='5019' > lhapdf=27419 </weight>
<weight id='5020' > lhapdf=27420 </weight>
<weight id='5021' > lhapdf=27421 </weight>
<weight id='5022' > lhapdf=27422 </weight>
<weight id='5023' > lhapdf=27423 </weight>
<weight id='5024' > lhapdf=27424 </weight>
<weight id='5025' > lhapdf=27425 </weight>
<weight id='5026' > lhapdf=27426 </weight>
<weight id='5027' > lhapdf=27427 </weight>
<weight id='5028' > lhapdf=27428 </weight>
<weight id='5029' > lhapdf=27429 </weight>
<weight id='5030' > lhapdf=27430 </weight>
<weight id='5031' > lhapdf=27431 </weight>
<weight id='5032' > lhapdf=27432 </weight>
<weight id='5033' > lhapdf=27433 </weight>
<weight id='5034' > lhapdf=27434 </weight>
<weight id='5035' > lhapdf=27435 </weight>
<weight id='5036' > lhapdf=27436 </weight>
<weight id='5037' > lhapdf=27437 </weight>
<weight id='5038' > lhapdf=27438 </weight>
<weight id='5039' > lhapdf=27439 </weight>
<weight id='5040' > lhapdf=27440 </weight>
<weight id='5041' > lhapdf=27441 </weight>
<weight id='5042' > lhapdf=27442 </weight>
<weight id='5043' > lhapdf=27443 </weight>
<weight id='5044' > lhapdf=27444 </weight>
<weight id='5045' > lhapdf=27445 </weight>
<weight id='5046' > lhapdf=27446 </weight>
<weight id='5047' > lhapdf=27447 </weight>
<weight id='5048' > lhapdf=27448 </weight>
<weight id='5049' > lhapdf=27449 </weight>
<weight id='5050' > lhapdf=27450 </weight>
<weight id='5051' > lhapdf=27451 </weight>
<weight id='5052' > lhapdf=27452 </weight>
<weight id='5053' > lhapdf=27453 </weight>
<weight id='5054' > lhapdf=27454 </weight>
<weight id='5055' > lhapdf=27455 </weight>
<weight id='5056' > lhapdf=27456 </weight>
<weight id='5057' > lhapdf=27457 </weight>
<weight id='5058' > lhapdf=27458 </weight>
<weight id='5059' > lhapdf=27459 </weight>
<weight id='5060' > lhapdf=27460 </weight>
<weight id='5061' > lhapdf=27461 </weight>
<weight id='5062' > lhapdf=27462 </weight>
<weight id='5063' > lhapdf=27463 </weight>
<weight id='5064' > lhapdf=27464 </weight>
<weight id='5100' > lhapdf=27500 </weight>
<weight id='5101' > lhapdf=27550 </weight>
<weight id='6000' > lhapdf=93300 </weight>
<weight id='6001' > lhapdf=93301 </weight>
<weight id='6002' > lhapdf=93302 </weight>
<weight id='6003' > lhapdf=93303 </weight>
<weight id='6004' > lhapdf=93304 </weight>
<weight id='6005' > lhapdf=93305 </weight>
<weight id='6006' > lhapdf=93306 </weight>
<weight id='6007' > lhapdf=93307 </weight>
<weight id='6008' > lhapdf=93308 </weight>
<weight id='6009' > lhapdf=93309 </weight>
<weight id='6010' > lhapdf=93310 </weight>
<weight id='6011' > lhapdf=93311 </weight>
<weight id='6012' > lhapdf=93312 </weight>
<weight id='6013' > lhapdf=93313 </weight>
<weight id='6014' > lhapdf=93314 </weight>
<weight id='6015' > lhapdf=93315 </weight>
<weight id='6016' > lhapdf=93316 </weight>
<weight id='6017' > lhapdf=93317 </weight>
<weight id='6018' > lhapdf=93318 </weight>
<weight id='6019' > lhapdf=93319 </weight>
<weight id='6020' > lhapdf=93320 </weight>
<weight id='6021' > lhapdf=93321 </weight>
<weight id='6022' > lhapdf=93322 </weight>
<weight id='6023' > lhapdf=93323 </weight>
<weight id='6024' > lhapdf=93324 </weight>
<weight id='6025' > lhapdf=93325 </weight>
<weight id='6026' > lhapdf=93326 </weight>
<weight id='6027' > lhapdf=93327 </weight>
<weight id='6028' > lhapdf=93328 </weight>
<weight id='6029' > lhapdf=93329 </weight>
<weight id='6030' > lhapdf=93330 </weight>
<weight id='6031' > lhapdf=93331 </weight>
<weight id='6032' > lhapdf=93332 </weight>
<weight id='6033' > lhapdf=93333 </weight>
<weight id='6034' > lhapdf=93334 </weight>
<weight id='6035' > lhapdf=93335 </weight>
<weight id='6036' > lhapdf=93336 </weight>
<weight id='6037' > lhapdf=93337 </weight>
<weight id='6038' > lhapdf=93338 </weight>
<weight id='6039' > lhapdf=93339 </weight>
<weight id='6040' > lhapdf=93340 </weight>
<weight id='6041' > lhapdf=93341 </weight>
<weight id='6042' > lhapdf=93342 </weight>
<weight id='7000' > lhapdf=61200 </weight>
<weight id='7001' > lhapdf=61201 </weight>
<weight id='7002' > lhapdf=61202 </weight>
<weight id='7003' > lhapdf=61203 </weight>
<weight id='7004' > lhapdf=61204 </weight>
<weight id='7005' > lhapdf=61205 </weight>
<weight id='7006' > lhapdf=61206 </weight>
<weight id='7007' > lhapdf=61207 </weight>
<weight id='7008' > lhapdf=61208 </weight>
<weight id='7009' > lhapdf=61209 </weight>
<weight id='7010' > lhapdf=61210 </weight>
<weight id='7011' > lhapdf=61211 </weight>
<weight id='7012' > lhapdf=61212 </weight>
<weight id='7013' > lhapdf=61213 </weight>
<weight id='7014' > lhapdf=61214 </weight>
<weight id='7015' > lhapdf=61215 </weight>
<weight id='7016' > lhapdf=61216 </weight>
<weight id='7017' > lhapdf=61217 </weight>
<weight id='7018' > lhapdf=61218 </weight>
<weight id='7019' > lhapdf=61219 </weight>
<weight id='7020' > lhapdf=61220 </weight>
<weight id='7021' > lhapdf=61221 </weight>
<weight id='7022' > lhapdf=61222 </weight>
<weight id='7023' > lhapdf=61223 </weight>
<weight id='7024' > lhapdf=61224 </weight>
<weight id='7025' > lhapdf=61225 </weight>
<weight id='7026' > lhapdf=61226 </weight>
<weight id='7027' > lhapdf=61227 </weight>
<weight id='7028' > lhapdf=61228 </weight>
<weight id='8000' > lhapdf=42780 </weight>
<weight id='8001' > lhapdf=42781 </weight>
<weight id='8002' > lhapdf=42782 </weight>
<weight id='8003' > lhapdf=42783 </weight>
<weight id='8004' > lhapdf=42784 </weight>
<weight id='8005' > lhapdf=42785 </weight>
<weight id='8006' > lhapdf=42786 </weight>
<weight id='8007' > lhapdf=42787 </weight>
<weight id='8008' > lhapdf=42788 </weight>
<weight id='8009' > lhapdf=42789 </weight>
<weight id='8010' > lhapdf=42790 </weight>
<weight id='8011' > lhapdf=42791 </weight>
<weight id='8012' > lhapdf=42792 </weight>
<weight id='8013' > lhapdf=42793 </weight>
<weight id='8014' > lhapdf=42794 </weight>
<weight id='8015' > lhapdf=42795 </weight>
<weight id='8016' > lhapdf=42796 </weight>
<weight id='8017' > lhapdf=42797 </weight>
<weight id='8018' > lhapdf=42798 </weight>
<weight id='8019' > lhapdf=42799 </weight>
<weight id='8020' > lhapdf=42800 </weight>
<weight id='8021' > lhapdf=42801 </weight>
<weight id='8022' > lhapdf=42802 </weight>
<weight id='8023' > lhapdf=42803 </weight>
<weight id='8024' > lhapdf=42804 </weight>
<weight id='8025' > lhapdf=42805 </weight>
<weight id='8026' > lhapdf=42806 </weight>
<weight id='8027' > lhapdf=42807 </weight>
<weight id='8028' > lhapdf=42808 </weight>
<weight id='8029' > lhapdf=42809 </weight>
</weightgroup>
<weightgroup name='PDF_variation2' combine='replica' >
<weight id='3000' > lhapdf=316200 </weight>
<weight id='3001' > lhapdf=316201 </weight>
<weight id='3002' > lhapdf=316202 </weight>
<weight id='3003' > lhapdf=316203 </weight>
<weight id='3004' > lhapdf=316204 </weight>
<weight id='3005' > lhapdf=316205 </weight>
<weight id='3006' > lhapdf=316206 </weight>
<weight id='3007' > lhapdf=316207 </weight>
<weight id='3008' > lhapdf=316208 </weight>
<weight id='3009' > lhapdf=316209 </weight>
<weight id='3010' > lhapdf=316210 </weight>
<weight id='3011' > lhapdf=316211 </weight>
<weight id='3012' > lhapdf=316212 </weight>
<weight id='3013' > lhapdf=316213 </weight>
<weight id='3014' > lhapdf=316214 </weight>
<weight id='3015' > lhapdf=316215 </weight>
<weight id='3016' > lhapdf=316216 </weight>
<weight id='3017' > lhapdf=316217 </weight>
<weight id='3018' > lhapdf=316218 </weight>
<weight id='3019' > lhapdf=316219 </weight>
<weight id='3020' > lhapdf=316220 </weight>
<weight id='3021' > lhapdf=316221 </weight>
<weight id='3022' > lhapdf=316222 </weight>
<weight id='3023' > lhapdf=316223 </weight>
<weight id='3024' > lhapdf=316224 </weight>
<weight id='3025' > lhapdf=316225 </weight>
<weight id='3026' > lhapdf=316226 </weight>
<weight id='3027' > lhapdf=316227 </weight>
<weight id='3028' > lhapdf=316228 </weight>
<weight id='3029' > lhapdf=316229 </weight>
<weight id='3030' > lhapdf=316230 </weight>
<weight id='3031' > lhapdf=316231 </weight>
<weight id='3032' > lhapdf=316232 </weight>
<weight id='3033' > lhapdf=316233 </weight>
<weight id='3034' > lhapdf=316234 </weight>
<weight id='3035' > lhapdf=316235 </weight>
<weight id='3036' > lhapdf=316236 </weight>
<weight id='3037' > lhapdf=316237 </weight>
<weight id='3038' > lhapdf=316238 </weight>
<weight id='3039' > lhapdf=316239 </weight>
<weight id='3040' > lhapdf=316240 </weight>
<weight id='3041' > lhapdf=316241 </weight>
<weight id='3042' > lhapdf=316242 </weight>
<weight id='3043' > lhapdf=316243 </weight>
<weight id='3044' > lhapdf=316244 </weight>
<weight id='3045' > lhapdf=316245 </weight>
<weight id='3046' > lhapdf=316246 </weight>
<weight id='3047' > lhapdf=316247 </weight>
<weight id='3048' > lhapdf=316248 </weight>
<weight id='3049' > lhapdf=316249 </weight>
<weight id='3050' > lhapdf=316250 </weight>
<weight id='3051' > lhapdf=316251 </weight>
<weight id='3052' > lhapdf=316252 </weight>
<weight id='3053' > lhapdf=316253 </weight>
<weight id='3054' > lhapdf=316254 </weight>
<weight id='3055' > lhapdf=316255 </weight>
<weight id='3056' > lhapdf=316256 </weight>
<weight id='3057' > lhapdf=316257 </weight>
<weight id='3058' > lhapdf=316258 </weight>
<weight id='3059' > lhapdf=316259 </weight>
<weight id='3060' > lhapdf=316260 </weight>
<weight id='3061' > lhapdf=316261 </weight>
<weight id='3062' > lhapdf=316262 </weight>
<weight id='3063' > lhapdf=316263 </weight>
<weight id='3064' > lhapdf=316264 </weight>
<weight id='3065' > lhapdf=316265 </weight>
<weight id='3066' > lhapdf=316266 </weight>
<weight id='3067' > lhapdf=316267 </weight>
<weight id='3068' > lhapdf=316268 </weight>
<weight id='3069' > lhapdf=316269 </weight>
<weight id='3070' > lhapdf=316270 </weight>
<weight id='3071' > lhapdf=316271 </weight>
<weight id='3072' > lhapdf=316272 </weight>
<weight id='3073' > lhapdf=316273 </weight>
<weight id='3074' > lhapdf=316274 </weight>
<weight id='3075' > lhapdf=316275 </weight>
<weight id='3076' > lhapdf=316276 </weight>
<weight id='3077' > lhapdf=316277 </weight>
<weight id='3078' > lhapdf=316278 </weight>
<weight id='3079' > lhapdf=316279 </weight>
<weight id='3080' > lhapdf=316280 </weight>
<weight id='3081' > lhapdf=316281 </weight>
<weight id='3082' > lhapdf=316282 </weight>
<weight id='3083' > lhapdf=316283 </weight>
<weight id='3084' > lhapdf=316284 </weight>
<weight id='3085' > lhapdf=316285 </weight>
<weight id='3086' > lhapdf=316286 </weight>
<weight id='3087' > lhapdf=316287 </weight>
<weight id='3088' > lhapdf=316288 </weight>
<weight id='3089' > lhapdf=316289 </weight>
<weight id='3090' > lhapdf=316290 </weight>
<weight id='3091' > lhapdf=316291 </weight>
<weight id='3092' > lhapdf=316292 </weight>
<weight id='3093' > lhapdf=316293 </weight>
<weight id='3094' > lhapdf=316294 </weight>
<weight id='3095' > lhapdf=316295 </weight>
<weight id='3096' > lhapdf=316296 </weight>
<weight id='3097' > lhapdf=316297 </weight>
<weight id='3098' > lhapdf=316298 </weight>
<weight id='3099' > lhapdf=316299 </weight>
<weight id='3100' > lhapdf=316300 </weight>
<weight id='3200' > lhapdf=331300 </weight>
<weight id='3201' > lhapdf=331301 </weight>
<weight id='3202' > lhapdf=331302 </weight>
<weight id='3203' > lhapdf=331303 </weight>
<weight id='3204' > lhapdf=331304 </weight>
<weight id='3205' > lhapdf=331305 </weight>
<weight id='3206' > lhapdf=331306 </weight>
<weight id='3207' > lhapdf=331307 </weight>
<weight id='3208' > lhapdf=331308 </weight>
<weight id='3209' > lhapdf=331309 </weight>
<weight id='3210' > lhapdf=331310 </weight>
<weight id='3211' > lhapdf=331311 </weight>
<weight id='3212' > lhapdf=331312 </weight>
<weight id='3213' > lhapdf=331313 </weight>
<weight id='3214' > lhapdf=331314 </weight>
<weight id='3215' > lhapdf=331315 </weight>
<weight id='3216' > lhapdf=331316 </weight>
<weight id='3217' > lhapdf=331317 </weight>
<weight id='3218' > lhapdf=331318 </weight>
<weight id='3219' > lhapdf=331319 </weight>
<weight id='3220' > lhapdf=331320 </weight>
<weight id='3221' > lhapdf=331321 </weight>
<weight id='3222' > lhapdf=331322 </weight>
<weight id='3223' > lhapdf=331323 </weight>
<weight id='3224' > lhapdf=331324 </weight>
<weight id='3225' > lhapdf=331325 </weight>
<weight id='3226' > lhapdf=331326 </weight>
<weight id='3227' > lhapdf=331327 </weight>
<weight id='3228' > lhapdf=331328 </weight>
<weight id='3229' > lhapdf=331329 </weight>
<weight id='3230' > lhapdf=331330 </weight>
<weight id='3231' > lhapdf=331331 </weight>
<weight id='3232' > lhapdf=331332 </weight>
<weight id='3233' > lhapdf=331333 </weight>
<weight id='3234' > lhapdf=331334 </weight>
<weight id='3235' > lhapdf=331335 </weight>
<weight id='3236' > lhapdf=331336 </weight>
<weight id='3237' > lhapdf=331337 </weight>
<weight id='3238' > lhapdf=331338 </weight>
<weight id='3239' > lhapdf=331339 </weight>
<weight id='3240' > lhapdf=331340 </weight>
<weight id='3241' > lhapdf=331341 </weight>
<weight id='3242' > lhapdf=331342 </weight>
<weight id='3243' > lhapdf=331343 </weight>
<weight id='3244' > lhapdf=331344 </weight>
<weight id='3245' > lhapdf=331345 </weight>
<weight id='3246' > lhapdf=331346 </weight>
<weight id='3247' > lhapdf=331347 </weight>
<weight id='3248' > lhapdf=331348 </weight>
<weight id='3249' > lhapdf=331349 </weight>
<weight id='3250' > lhapdf=331350 </weight>
<weight id='3251' > lhapdf=331351 </weight>
<weight id='3252' > lhapdf=331352 </weight>
<weight id='3253' > lhapdf=331353 </weight>
<weight id='3254' > lhapdf=331354 </weight>
<weight id='3255' > lhapdf=331355 </weight>
<weight id='3256' > lhapdf=331356 </weight>
<weight id='3257' > lhapdf=331357 </weight>
<weight id='3258' > lhapdf=331358 </weight>
<weight id='3259' > lhapdf=331359 </weight>
<weight id='3260' > lhapdf=331360 </weight>
<weight id='3261' > lhapdf=331361 </weight>
<weight id='3262' > lhapdf=331362 </weight>
<weight id='3263' > lhapdf=331363 </weight>
<weight id='3264' > lhapdf=331364 </weight>
<weight id='3265' > lhapdf=331365 </weight>
<weight id='3266' > lhapdf=331366 </weight>
<weight id='3267' > lhapdf=331367 </weight>
<weight id='3268' > lhapdf=331368 </weight>
<weight id='3269' > lhapdf=331369 </weight>
<weight id='3270' > lhapdf=331370 </weight>
<weight id='3271' > lhapdf=331371 </weight>
<weight id='3272' > lhapdf=331372 </weight>
<weight id='3273' > lhapdf=331373 </weight>
<weight id='3274' > lhapdf=331374 </weight>
<weight id='3275' > lhapdf=331375 </weight>
<weight id='3276' > lhapdf=331376 </weight>
<weight id='3277' > lhapdf=331377 </weight>
<weight id='3278' > lhapdf=331378 </weight>
<weight id='3279' > lhapdf=331379 </weight>
<weight id='3280' > lhapdf=331380 </weight>
<weight id='3281' > lhapdf=331381 </weight>
<weight id='3282' > lhapdf=331382 </weight>
<weight id='3283' > lhapdf=331383 </weight>
<weight id='3284' > lhapdf=331384 </weight>
<weight id='3285' > lhapdf=331385 </weight>
<weight id='3286' > lhapdf=331386 </weight>
<weight id='3287' > lhapdf=331387 </weight>
<weight id='3288' > lhapdf=331388 </weight>
<weight id='3289' > lhapdf=331389 </weight>
<weight id='3290' > lhapdf=331390 </weight>
<weight id='3291' > lhapdf=331391 </weight>
<weight id='3292' > lhapdf=331392 </weight>
<weight id='3293' > lhapdf=331393 </weight>
<weight id='3294' > lhapdf=331394 </weight>
<weight id='3295' > lhapdf=331395 </weight>
<weight id='3296' > lhapdf=331396 </weight>
<weight id='3297' > lhapdf=331397 </weight>
<weight id='3298' > lhapdf=331398 </weight>
<weight id='3299' > lhapdf=331399 </weight>
<weight id='3300' > lhapdf=331400 </weight>
<weight id='3301' > lhapdf=331401 </weight>
<weight id='3302' > lhapdf=331402 </weight>
<weight id='3400' > lhapdf=332100 </weight>
<weight id='3401' > lhapdf=332101 </weight>
<weight id='3402' > lhapdf=332102 </weight>
<weight id='3403' > lhapdf=332103 </weight>
<weight id='3404' > lhapdf=332104 </weight>
<weight id='3405' > lhapdf=332105 </weight>
<weight id='3406' > lhapdf=332106 </weight>
<weight id='3407' > lhapdf=332107 </weight>
<weight id='3408' > lhapdf=332108 </weight>
<weight id='3409' > lhapdf=332109 </weight>
<weight id='3410' > lhapdf=332110 </weight>
<weight id='3411' > lhapdf=332111 </weight>
<weight id='3412' > lhapdf=332112 </weight>
<weight id='3413' > lhapdf=332113 </weight>
<weight id='3414' > lhapdf=332114 </weight>
<weight id='3415' > lhapdf=332115 </weight>
<weight id='3416' > lhapdf=332116 </weight>
<weight id='3417' > lhapdf=332117 </weight>
<weight id='3418' > lhapdf=332118 </weight>
<weight id='3419' > lhapdf=332119 </weight>
<weight id='3420' > lhapdf=332120 </weight>
<weight id='3421' > lhapdf=332121 </weight>
<weight id='3422' > lhapdf=332122 </weight>
<weight id='3423' > lhapdf=332123 </weight>
<weight id='3424' > lhapdf=332124 </weight>
<weight id='3425' > lhapdf=332125 </weight>
<weight id='3426' > lhapdf=332126 </weight>
<weight id='3427' > lhapdf=332127 </weight>
<weight id='3428' > lhapdf=332128 </weight>
<weight id='3429' > lhapdf=332129 </weight>
<weight id='3430' > lhapdf=332130 </weight>
<weight id='3431' > lhapdf=332131 </weight>
<weight id='3432' > lhapdf=332132 </weight>
<weight id='3433' > lhapdf=332133 </weight>
<weight id='3434' > lhapdf=332134 </weight>
<weight id='3435' > lhapdf=332135 </weight>
<weight id='3436' > lhapdf=332136 </weight>
<weight id='3437' > lhapdf=332137 </weight>
<weight id='3438' > lhapdf=332138 </weight>
<weight id='3439' > lhapdf=332139 </weight>
<weight id='3440' > lhapdf=332140 </weight>
<weight id='3441' > lhapdf=332141 </weight>
<weight id='3442' > lhapdf=332142 </weight>
<weight id='3443' > lhapdf=332143 </weight>
<weight id='3444' > lhapdf=332144 </weight>
<weight id='3445' > lhapdf=332145 </weight>
<weight id='3446' > lhapdf=332146 </weight>
<weight id='3447' > lhapdf=332147 </weight>
<weight id='3448' > lhapdf=332148 </weight>
<weight id='3449' > lhapdf=332149 </weight>
<weight id='3450' > lhapdf=332150 </weight>
<weight id='3451' > lhapdf=332151 </weight>
<weight id='3452' > lhapdf=332152 </weight>
<weight id='3453' > lhapdf=332153 </weight>
<weight id='3454' > lhapdf=332154 </weight>
<weight id='3455' > lhapdf=332155 </weight>
<weight id='3456' > lhapdf=332156 </weight>
<weight id='3457' > lhapdf=332157 </weight>
<weight id='3458' > lhapdf=332158 </weight>
<weight id='3459' > lhapdf=332159 </weight>
<weight id='3460' > lhapdf=332160 </weight>
<weight id='3461' > lhapdf=332161 </weight>
<weight id='3462' > lhapdf=332162 </weight>
<weight id='3463' > lhapdf=332163 </weight>
<weight id='3464' > lhapdf=332164 </weight>
<weight id='3465' > lhapdf=332165 </weight>
<weight id='3466' > lhapdf=332166 </weight>
<weight id='3467' > lhapdf=332167 </weight>
<weight id='3468' > lhapdf=332168 </weight>
<weight id='3469' > lhapdf=332169 </weight>
<weight id='3470' > lhapdf=332170 </weight>
<weight id='3471' > lhapdf=332171 </weight>
<weight id='3472' > lhapdf=332172 </weight>
<weight id='3473' > lhapdf=332173 </weight>
<weight id='3474' > lhapdf=332174 </weight>
<weight id='3475' > lhapdf=332175 </weight>
<weight id='3476' > lhapdf=332176 </weight>
<weight id='3477' > lhapdf=332177 </weight>
<weight id='3478' > lhapdf=332178 </weight>
<weight id='3479' > lhapdf=332179 </weight>
<weight id='3480' > lhapdf=332180 </weight>
<weight id='3481' > lhapdf=332181 </weight>
<weight id='3482' > lhapdf=332182 </weight>
<weight id='3483' > lhapdf=332183 </weight>
<weight id='3484' > lhapdf=332184 </weight>
<weight id='3485' > lhapdf=332185 </weight>
<weight id='3486' > lhapdf=332186 </weight>
<weight id='3487' > lhapdf=332187 </weight>
<weight id='3488' > lhapdf=332188 </weight>
<weight id='3489' > lhapdf=332189 </weight>
<weight id='3490' > lhapdf=332190 </weight>
<weight id='3491' > lhapdf=332191 </weight>
<weight id='3492' > lhapdf=332192 </weight>
<weight id='3493' > lhapdf=332193 </weight>
<weight id='3494' > lhapdf=332194 </weight>
<weight id='3495' > lhapdf=332195 </weight>
<weight id='3496' > lhapdf=332196 </weight>
<weight id='3497' > lhapdf=332197 </weight>
<weight id='3498' > lhapdf=332198 </weight>
<weight id='3499' > lhapdf=332199 </weight>
<weight id='3500' > lhapdf=332200 </weight>
</weightgroup>
</initrwgt>
</header>
<init>
     2212     2212  6.80000E+03  6.80000E+03     -1     -1     -1     -1     -4      1
  762.13711309691178   0.26901491563536323  1.00000000000E-00 322200
</init>
<event>
     13 322200  8.11039E+01  5.70467E+01 -1.00000E+00  1.33969E-01
       1    -1     0     0   503     0  0.000000000E+00  0.000000000E+00  1.378008716E+03  1.378008716E+03  0.000000000E+00  0.00000E+00  9.000E+00
      21    -1     0     0   502   503  0.000000000E+00  0.000000000E+00 -2.089752551E+02  2.089752551E+02  0.000000000E+00  0.00000E+00  9.000E+00
       6     2     1     2   502     0  8.419346020E+01  5.443553790E+01  4.906589078E+02  5.281473914E+02  1.677549901E+02  0.00000E+00  9.000E+00
      -6     2     1     2     0   512 -1.032109082E+02 -6.520201683E-01  8.522481648E+02  8.758436640E+02  1.735576926E+02  0.00000E+00  9.000E+00
       1     1     1     2   512     0  1.901744805E+01 -5.378351773E+01 -1.738736119E+02  1.829929155E+02  2.100000000E-01  0.00000E+00  9.000E+00
      24     2     3     3     0     0  9.599698685E+01 -1.003195458E+01  2.702640423E+02  2.981585195E+02  8.086895959E+01  0.00000E+00  9.000E+00
       5     1     3     3   502     0 -1.180352665E+01  6.446749248E+01  2.203948655E+02  2.299888719E+02  5.060000000E+00  0.00000E+00 -1.000E+00
     -24     2     4     4     0     0 -9.240389809E+01  2.553313367E+01  8.297704885E+02  8.393292384E+02  8.224406017E+01  0.00000E+00  9.000E+00
      -5     1     4     4     0   512 -1.080701016E+01 -2.618515384E+01  2.247767629E+01  3.651442566E+01  5.060000000E+00  0.00000E+00  1.000E+00
     -11     1     6     6     0     0 -6.803104212E+00 -1.072607479E+01  8.791170179E+01  8.882453613E+01  5.100000000E-04  0.00000E+00  1.000E+00
      12     1     6     6     0     0  1.028000911E+02  6.941202091E-01  1.823523405E+02  2.093339834E+02  0.000000000E+00  0.00000E+00 -1.000E+00
      13     1     8     8     0     0 -1.009680490E+02  4.124068733E+00  6.052558445E+02  6.136336067E+02  1.057000000E-01  0.00000E+00 -1.000E+00
     -14     1     8     8     0     0  8.564150917E+00  2.140906494E+01  2.245146441E+02  2.256956316E+02  0.000000000E+00  0.00000E+00  1.000E+00
#rwgt            1           7   59.894294607675285               10          66           0
<rwgt>
<wgt id='1001'>0.81104E+02</wgt>
<wgt id='1002'>0.90406E+02</wgt>
<wgt id='1003'>0.72749E+02</wgt>
<wgt id='1004'>0.75502E+02</wgt>
<wgt id='1005'>0.82633E+02</wgt>
<wgt id='1006'>0.69024E+02</wgt>
<wgt id='1007'>0.85432E+02</wgt>
<wgt id='1008'>0.97897E+02</wgt>
<wgt id='1009'>0.74365E+02</wgt>
<wgt id='2000'>0.81104E+02</wgt>
<wgt id='2001'>0.81475E+02</wgt>
<wgt id='2002'>0.81022E+02</wgt>
<wgt id='2003'>0.81202E+02</wgt>
<wgt id='2004'>0.81141E+02</wgt>
<wgt id='2005'>0.81406E+02</wgt>
<wgt id='2006'>0.80979E+02</wgt>
<wgt id='2007'>0.80748E+02</wgt>
<wgt id='2008'>0.80812E+02</wgt>
<wgt id='2009'>0.80969E+02</wgt>
<wgt id='2010'>0.81019E+02</wgt>
<wgt id='2011'>0.81021E+02</wgt>
<wgt id='2012'>0.81242E+02</wgt>
<wgt id='2013'>0.81223E+02</wgt>
<wgt id='2014'>0.80969E+02</wgt>
<wgt id='2015'>0.81406E+02</wgt>
<wgt id='2016'>0.80752E+02</wgt>
<wgt id='2017'>0.81225E+02</wgt>
<wgt id='2018'>0.80831E+02</wgt>
<wgt id='2019'>0.81421E+02</wgt>
<wgt id='2020'>0.81619E+02</wgt>
<wgt id='2021'>0.81001E+02</wgt>
<wgt id='2022'>0.81206E+02</wgt>
<wgt id='2023'>0.80577E+02</wgt>
<wgt id='2024'>0.81406E+02</wgt>
<wgt id='2025'>0.80824E+02</wgt>
<wgt id='2026'>0.81305E+02</wgt>
<wgt id='2027'>0.81167E+02</wgt>
<wgt id='2028'>0.81742E+02</wgt>
<wgt id='2029'>0.81494E+02</wgt>
<wgt id='2030'>0.80736E+02</wgt>
<wgt id='2031'>0.81943E+02</wgt>
<wgt id='2032'>0.81380E+02</wgt>
<wgt id='2033'>0.81280E+02</wgt>
<wgt id='2034'>0.81432E+02</wgt>
<wgt id='2035'>0.81104E+02</wgt>
<wgt id='2036'>0.80152E+02</wgt>
<wgt id='2037'>0.81890E+02</wgt>
<wgt id='2038'>0.80708E+02</wgt>
<wgt id='2039'>0.80840E+02</wgt>
<wgt id='2040'>0.81151E+02</wgt>
<wgt id='2041'>0.81201E+02</wgt>
<wgt id='2042'>0.81058E+02</wgt>
<wgt id='2043'>0.81103E+02</wgt>
<wgt id='2044'>0.81029E+02</wgt>
<wgt id='2045'>0.81278E+02</wgt>
<wgt id='2046'>0.81098E+02</wgt>
<wgt id='2047'>0.81311E+02</wgt>
<wgt id='2048'>0.81163E+02</wgt>
<wgt id='2049'>0.81005E+02</wgt>
<wgt id='2050'>0.80741E+02</wgt>
<wgt id='2051'>0.81027E+02</wgt>
<wgt id='2052'>0.80991E+02</wgt>
<wgt id='2053'>0.81285E+02</wgt>
<wgt id='2054'>0.80965E+02</wgt>
<wgt id='2055'>0.81244E+02</wgt>
<wgt id='2056'>0.80723E+02</wgt>
<wgt id='2057'>0.81054E+02</wgt>
<wgt id='2058'>0.81337E+02</wgt>
<wgt id='2059'>0.81215E+02</wgt>
<wgt id='2060'>0.80998E+02</wgt>
<wgt id='2061'>0.81281E+02</wgt>
<wgt id='2062'>0.81384E+02</wgt>
<wgt id='2063'>0.81121E+02</wgt>
<wgt id='2064'>0.81157E+02</wgt>
<wgt id='2065'>0.80982E+02</wgt>
<wgt id='2066'>0.81066E+02</wgt>
<wgt id='2067'>0.81120E+02</wgt>
<wgt id='2068'>0.81220E+02</wgt>
<wgt id='2069'>0.81128E+02</wgt>
<wgt id='2070'>0.80991E+02</wgt>
<wgt id='2071'>0.81263E+02</wgt>
<wgt id='2072'>0.81141E+02</wgt>
<wgt id='2073'>0.81150E+02</wgt>
<wgt id='2074'>0.81344E+02</wgt>
<wgt id='2075'>0.80926E+02</wgt>
<wgt id='2076'>0.81103E+02</wgt>
<wgt id='2077'>0.81134E+02</wgt>
<wgt id='2078'>0.81213E+02</wgt>
<wgt id='2079'>0.81032E+02</wgt>
<wgt id='2080'>0.81037E+02</wgt>
<wgt id='2081'>0.81033E+02</wgt>
<wgt id='2082'>0.81152E+02</wgt>
<wgt id='2083'>0.81041E+02</wgt>
<wgt id='2084'>0.81056E+02</wgt>
<wgt id='2085'>0.81101E+02</wgt>
<wgt id='2086'>0.81208E+02</wgt>
<wgt id='2087'>0.81118E+02</wgt>
<wgt id='2088'>0.81146E+02</wgt>
<wgt id='2089'>0.81034E+02</wgt>
<wgt id='2090'>0.81069E+02</wgt>
<wgt id='2091'>0.81034E+02</wgt>
<wgt id='2092'>0.81077E+02</wgt>
<wgt id='2093'>0.81100E+02</wgt>
<wgt id='2094'>0.81148E+02</wgt>
<wgt id='2095'>0.81039E+02</wgt>
<wgt id='2096'>0.81118E+02</wgt>
<wgt id='2097'>0.81115E+02</wgt>
<wgt id='2098'>0.81120E+02</wgt>
<wgt id='2099'>0.81088E+02</wgt>
<wgt id='2100'>0.81104E+02</wgt>
<wgt id='2101'>0.78303E+02</wgt>
<wgt id='2102'>0.83311E+02</wgt>
<wgt id='2200'>0.80979E+02</wgt>
<wgt id='2201'>0.68365E+02</wgt>
<wgt id='2202'>0.70315E+02</wgt>
<wgt id='2203'>0.73256E+02</wgt>
<wgt id='2204'>0.76103E+02</wgt>
<wgt id='2205'>0.79672E+02</wgt>
<wgt id='2206'>0.82294E+02</wgt>
<wgt id='2207'>0.86312E+02</wgt>
<wgt id='2208'>0.88138E+02</wgt>
<wgt id='2300'>0.80872E+02</wgt>
<wgt id='2301'>0.81068E+02</wgt>
<wgt id='2302'>0.80636E+02</wgt>
<wgt id='2303'>0.81064E+02</wgt>
<wgt id='2304'>0.80899E+02</wgt>
<wgt id='2305'>0.81120E+02</wgt>
<wgt id='2306'>0.80871E+02</wgt>
<wgt id='2307'>0.81324E+02</wgt>
<wgt id='2308'>0.81210E+02</wgt>
<wgt id='2309'>0.81167E+02</wgt>
<wgt id='2310'>0.80804E+02</wgt>
<wgt id='2311'>0.80705E+02</wgt>
<wgt id='2312'>0.80773E+02</wgt>
<wgt id='2313'>0.81169E+02</wgt>
<wgt id='2314'>0.80877E+02</wgt>
<wgt id='2315'>0.80728E+02</wgt>
<wgt id='2316'>0.81570E+02</wgt>
<wgt id='2317'>0.80590E+02</wgt>
<wgt id='2318'>0.80889E+02</wgt>
<wgt id='2319'>0.80756E+02</wgt>
<wgt id='2320'>0.80709E+02</wgt>
<wgt id='2321'>0.81156E+02</wgt>
<wgt id='2322'>0.80789E+02</wgt>
<wgt id='2323'>0.80555E+02</wgt>
<wgt id='2324'>0.81304E+02</wgt>
<wgt id='2325'>0.80722E+02</wgt>
<wgt id='2326'>0.80941E+02</wgt>
<wgt id='2327'>0.80564E+02</wgt>
<wgt id='2328'>0.81263E+02</wgt>
<wgt id='2329'>0.81173E+02</wgt>
<wgt id='2330'>0.79204E+02</wgt>
<wgt id='2331'>0.80820E+02</wgt>
<wgt id='2332'>0.81093E+02</wgt>
<wgt id='2333'>0.81045E+02</wgt>
<wgt id='2334'>0.80728E+02</wgt>
<wgt id='2335'>0.81268E+02</wgt>
<wgt id='2336'>0.80898E+02</wgt>
<wgt id='2337'>0.80682E+02</wgt>
<wgt id='2338'>0.80819E+02</wgt>
<wgt id='2339'>0.80947E+02</wgt>
<wgt id='2340'>0.80687E+02</wgt>
<wgt id='2341'>0.81065E+02</wgt>
<wgt id='2342'>0.80711E+02</wgt>
<wgt id='2343'>0.80932E+02</wgt>
<wgt id='2344'>0.80928E+02</wgt>
<wgt id='2345'>0.81080E+02</wgt>
<wgt id='2346'>0.80880E+02</wgt>
<wgt id='2347'>0.80852E+02</wgt>
<wgt id='2348'>0.81131E+02</wgt>
<wgt id='2349'>0.80541E+02</wgt>
<wgt id='2350'>0.80843E+02</wgt>
<wgt id='2351'>0.81359E+02</wgt>
<wgt id='2352'>0.80774E+02</wgt>
<wgt id='2353'>0.81317E+02</wgt>
<wgt id='2354'>0.81167E+02</wgt>
<wgt id='2355'>0.80784E+02</wgt>
<wgt id='2356'>0.81142E+02</wgt>
<wgt id='2357'>0.80735E+02</wgt>
<wgt id='2358'>0.80921E+02</wgt>
<wgt id='2359'>0.80593E+02</wgt>
<wgt id='2360'>0.81093E+02</wgt>
<wgt id='2361'>0.80994E+02</wgt>
<wgt id='2362'>0.81209E+02</wgt>
<wgt id='2363'>0.80818E+02</wgt>
<wgt id='2364'>0.81032E+02</wgt>
<wgt id='2365'>0.80740E+02</wgt>
<wgt id='2366'>0.80873E+02</wgt>
<wgt id='2367'>0.81022E+02</wgt>
<wgt id='2368'>0.80751E+02</wgt>
<wgt id='2369'>0.80827E+02</wgt>
<wgt id='2370'>0.81080E+02</wgt>
<wgt id='2371'>0.81014E+02</wgt>
<wgt id='2372'>0.80978E+02</wgt>
<wgt id='2373'>0.81035E+02</wgt>
<wgt id='2374'>0.80795E+02</wgt>
<wgt id='2375'>0.80656E+02</wgt>
<wgt id='2376'>0.80724E+02</wgt>
<wgt id='2377'>0.81021E+02</wgt>
<wgt id='2378'>0.80881E+02</wgt>
<wgt id='2379'>0.80898E+02</wgt>
<wgt id='2380'>0.80862E+02</wgt>
<wgt id='2381'>0.80885E+02</wgt>
<wgt id='2382'>0.80865E+02</wgt>
<wgt id='2383'>0.80840E+02</wgt>
<wgt id='2384'>0.80845E+02</wgt>
<wgt id='2385'>0.80790E+02</wgt>
<wgt id='2386'>0.80934E+02</wgt>
<wgt id='2387'>0.80779E+02</wgt>
<wgt id='2388'>0.80901E+02</wgt>
<wgt id='2389'>0.80849E+02</wgt>
<wgt id='2390'>0.80795E+02</wgt>
<wgt id='2391'>0.80970E+02</wgt>
<wgt id='2392'>0.80786E+02</wgt>
<wgt id='2393'>0.80885E+02</wgt>
<wgt id='2394'>0.80901E+02</wgt>
<wgt id='2395'>0.80933E+02</wgt>
<wgt id='2396'>0.80827E+02</wgt>
<wgt id='2397'>0.80828E+02</wgt>
<wgt id='2398'>0.80944E+02</wgt>
<wgt id='2399'>0.80886E+02</wgt>
<wgt id='2400'>0.80948E+02</wgt>
<wgt id='2401'>0.78209E+02</wgt>
<wgt id='2402'>0.83675E+02</wgt>
<wgt id='2500'>0.78132E+02</wgt>
<wgt id='2501'>0.78369E+02</wgt>
<wgt id='2600'>0.79487E+02</wgt>
<wgt id='2601'>0.79265E+02</wgt>
<wgt id='2602'>0.79426E+02</wgt>
<wgt id='2603'>0.79515E+02</wgt>
<wgt id='2604'>0.79373E+02</wgt>
<wgt id='2605'>0.78698E+02</wgt>
<wgt id='2606'>0.80177E+02</wgt>
<wgt id='2607'>0.79851E+02</wgt>
<wgt id='2608'>0.79650E+02</wgt>
<wgt id='2609'>0.79719E+02</wgt>
<wgt id='2610'>0.79895E+02</wgt>
<wgt id='2611'>0.78899E+02</wgt>
<wgt id='2612'>0.79585E+02</wgt>
<wgt id='2613'>0.79079E+02</wgt>
<wgt id='2614'>0.78834E+02</wgt>
<wgt id='2615'>0.79725E+02</wgt>
<wgt id='2616'>0.79561E+02</wgt>
<wgt id='2617'>0.79720E+02</wgt>
<wgt id='2618'>0.79383E+02</wgt>
<wgt id='2619'>0.79033E+02</wgt>
<wgt id='2620'>0.79801E+02</wgt>
<wgt id='2621'>0.80072E+02</wgt>
<wgt id='2622'>0.79522E+02</wgt>
<wgt id='2623'>0.79608E+02</wgt>
<wgt id='2624'>0.79667E+02</wgt>
<wgt id='2625'>0.79468E+02</wgt>
<wgt id='2626'>0.79378E+02</wgt>
<wgt id='2627'>0.79162E+02</wgt>
<wgt id='2628'>0.79486E+02</wgt>
<wgt id='2629'>0.79777E+02</wgt>
<wgt id='2630'>0.79544E+02</wgt>
<wgt id='2631'>0.79796E+02</wgt>
<wgt id='2632'>0.79577E+02</wgt>
<wgt id='2633'>0.79485E+02</wgt>
<wgt id='2634'>0.79296E+02</wgt>
<wgt id='2635'>0.79632E+02</wgt>
<wgt id='2636'>0.79586E+02</wgt>
<wgt id='2637'>0.79550E+02</wgt>
<wgt id='2638'>0.79489E+02</wgt>
<wgt id='2639'>0.79413E+02</wgt>
<wgt id='2640'>0.79662E+02</wgt>
<wgt id='2641'>0.79536E+02</wgt>
<wgt id='2642'>0.79601E+02</wgt>
<wgt id='2643'>0.79325E+02</wgt>
<wgt id='2644'>0.79462E+02</wgt>
<wgt id='2645'>0.79422E+02</wgt>
<wgt id='2646'>0.79470E+02</wgt>
<wgt id='2647'>0.79451E+02</wgt>
<wgt id='2648'>0.79516E+02</wgt>
<wgt id='2649'>0.79577E+02</wgt>
<wgt id='2650'>0.79525E+02</wgt>
<wgt id='2651'>0.79069E+02</wgt>
<wgt id='2652'>0.80079E+02</wgt>
<wgt id='2700'>0.78866E+02</wgt>
<wgt id='2701'>0.79069E+02</wgt>
<wgt id='2702'>0.79298E+02</wgt>
<wgt id='2703'>0.79466E+02</wgt>
<wgt id='2704'>0.80079E+02</wgt>
<wgt id='2705'>0.80787E+02</wgt>
<wgt id='2800'>0.85371E+02</wgt>
<wgt id='4000'>0.77546E+02</wgt>
<wgt id='4001'>0.77965E+02</wgt>
<wgt id='4002'>0.75435E+02</wgt>
<wgt id='4003'>0.76086E+02</wgt>
<wgt id='4004'>0.78347E+02</wgt>
<wgt id='4005'>0.75472E+02</wgt>
<wgt id='4006'>0.78872E+02</wgt>
<wgt id='4007'>0.76563E+02</wgt>
<wgt id='4008'>0.78346E+02</wgt>
<wgt id='4009'>0.76722E+02</wgt>
<wgt id='4010'>0.78147E+02</wgt>
<wgt id='4011'>0.77833E+02</wgt>
<wgt id='4012'>0.75658E+02</wgt>
<wgt id='4013'>0.78814E+02</wgt>
<wgt id='4014'>0.76782E+02</wgt>
<wgt id='4015'>0.78618E+02</wgt>
<wgt id='4016'>0.76294E+02</wgt>
<wgt id='4017'>0.77171E+02</wgt>
<wgt id='4018'>0.77629E+02</wgt>
<wgt id='4019'>0.78986E+02</wgt>
<wgt id='4020'>0.75557E+02</wgt>
<wgt id='4021'>0.77489E+02</wgt>
<wgt id='4022'>0.77546E+02</wgt>
<wgt id='4023'>0.76700E+02</wgt>
<wgt id='4024'>0.78594E+02</wgt>
<wgt id='4025'>0.77959E+02</wgt>
<wgt id='4026'>0.76283E+02</wgt>
<wgt id='4027'>0.77207E+02</wgt>
<wgt id='4028'>0.77729E+02</wgt>
<wgt id='4029'>0.78158E+02</wgt>
<wgt id='4030'>0.78128E+02</wgt>
<wgt id='4031'>0.77083E+02</wgt>
<wgt id='4032'>0.77820E+02</wgt>
<wgt id='4033'>0.77724E+02</wgt>
<wgt id='4034'>0.77875E+02</wgt>
<wgt id='4035'>0.77862E+02</wgt>
<wgt id='4036'>0.77313E+02</wgt>
<wgt id='4037'>0.76960E+02</wgt>
<wgt id='4038'>0.77405E+02</wgt>
<wgt id='4039'>0.74975E+02</wgt>
<wgt id='4040'>0.79923E+02</wgt>
<wgt id='4041'>0.78912E+02</wgt>
<wgt id='4042'>0.76396E+02</wgt>
<wgt id='4043'>0.76995E+02</wgt>
<wgt id='4044'>0.78691E+02</wgt>
<wgt id='4045'>0.76103E+02</wgt>
<wgt id='4046'>0.78132E+02</wgt>
<wgt id='4047'>0.77591E+02</wgt>
<wgt id='4048'>0.77765E+02</wgt>
<wgt id='4049'>0.79398E+02</wgt>
<wgt id='4050'>0.75874E+02</wgt>
<wgt id='4051'>0.77612E+02</wgt>
<wgt id='4052'>0.76923E+02</wgt>
<wgt id='4053'>0.77319E+02</wgt>
<wgt id='4054'>0.77572E+02</wgt>
<wgt id='4055'>0.77740E+02</wgt>
<wgt id='4056'>0.77953E+02</wgt>
<wgt id='4057'>0.77472E+02</wgt>
<wgt id='4058'>0.77654E+02</wgt>
<wgt id='4100'>0.78371E+02</wgt>
<wgt id='4101'>0.77963E+02</wgt>
<wgt id='4102'>0.77129E+02</wgt>
<wgt id='4103'>0.76717E+02</wgt>
<wgt id='4200'>0.78500E+02</wgt>
<wgt id='4201'>0.77260E+02</wgt>
<wgt id='4202'>0.79023E+02</wgt>
<wgt id='4203'>0.78070E+02</wgt>
<wgt id='4204'>0.78415E+02</wgt>
<wgt id='4205'>0.79569E+02</wgt>
<wgt id='4206'>0.77044E+02</wgt>
<wgt id='4207'>0.79876E+02</wgt>
<wgt id='4208'>0.78967E+02</wgt>
<wgt id='4209'>0.78779E+02</wgt>
<wgt id='4210'>0.78452E+02</wgt>
<wgt id='4211'>0.79214E+02</wgt>
<wgt id='4212'>0.77748E+02</wgt>
<wgt id='4213'>0.78395E+02</wgt>
<wgt id='4214'>0.78813E+02</wgt>
<wgt id='4215'>0.79050E+02</wgt>
<wgt id='4216'>0.76126E+02</wgt>
<wgt id='4217'>0.77809E+02</wgt>
<wgt id='4218'>0.78527E+02</wgt>
<wgt id='4219'>0.78875E+02</wgt>
<wgt id='4220'>0.78590E+02</wgt>
<wgt id='4221'>0.77872E+02</wgt>
<wgt id='4222'>0.77735E+02</wgt>
<wgt id='4223'>0.78355E+02</wgt>
<wgt id='4224'>0.78893E+02</wgt>
<wgt id='4225'>0.78415E+02</wgt>
<wgt id='4226'>0.78411E+02</wgt>
<wgt id='4227'>0.79070E+02</wgt>
<wgt id='4228'>0.77997E+02</wgt>
<wgt id='4229'>0.78936E+02</wgt>
<wgt id='4230'>0.78887E+02</wgt>
<wgt id='4231'>0.79655E+02</wgt>
<wgt id='4232'>0.76565E+02</wgt>
<wgt id='4233'>0.78801E+02</wgt>
<wgt id='4234'>0.78092E+02</wgt>
<wgt id='4235'>0.77382E+02</wgt>
<wgt id='4236'>0.79334E+02</wgt>
<wgt id='4237'>0.78052E+02</wgt>
<wgt id='4238'>0.78777E+02</wgt>
<wgt id='4239'>0.78343E+02</wgt>
<wgt id='4240'>0.79215E+02</wgt>
<wgt id='4241'>0.78959E+02</wgt>
<wgt id='4242'>0.78120E+02</wgt>
<wgt id='4243'>0.77174E+02</wgt>
<wgt id='4244'>0.80480E+02</wgt>
<wgt id='4245'>0.78680E+02</wgt>
<wgt id='4246'>0.78337E+02</wgt>
<wgt id='4247'>0.77778E+02</wgt>
<wgt id='4248'>0.78725E+02</wgt>
<wgt id='4249'>0.76873E+02</wgt>
<wgt id='4250'>0.80098E+02</wgt>
<wgt id='4251'>0.76993E+02</wgt>
<wgt id='4252'>0.79211E+02</wgt>
<wgt id='4253'>0.78041E+02</wgt>
<wgt id='4254'>0.79217E+02</wgt>
<wgt id='4255'>0.76847E+02</wgt>
<wgt id='4256'>0.79970E+02</wgt>
<wgt id='4257'>0.78015E+02</wgt>
<wgt id='4258'>0.78655E+02</wgt>
<wgt id='4300'>0.76859E+02</wgt>
<wgt id='4301'>0.77668E+02</wgt>
<wgt id='5000'>0.78120E+02</wgt>
<wgt id='5001'>0.78238E+02</wgt>
<wgt id='5002'>0.77969E+02</wgt>
<wgt id='5003'>0.77831E+02</wgt>
<wgt id='5004'>0.78384E+02</wgt>
<wgt id='5005'>0.77994E+02</wgt>
<wgt id='5006'>0.78326E+02</wgt>
<wgt id='5007'>0.78194E+02</wgt>
<wgt id='5008'>0.78060E+02</wgt>
<wgt id='5009'>0.78082E+02</wgt>
<wgt id='5010'>0.78159E+02</wgt>
<wgt id='5011'>0.77806E+02</wgt>
<wgt id='5012'>0.78424E+02</wgt>
<wgt id='5013'>0.78167E+02</wgt>
<wgt id='5014'>0.78087E+02</wgt>
<wgt id='5015'>0.78077E+02</wgt>
<wgt id='5016'>0.78077E+02</wgt>
<wgt id='5017'>0.77815E+02</wgt>
<wgt id='5018'>0.78324E+02</wgt>
<wgt id='5019'>0.77917E+02</wgt>
<wgt id='5020'>0.78400E+02</wgt>
<wgt id='5021'>0.78433E+02</wgt>
<wgt id='5022'>0.77610E+02</wgt>
<wgt id='5023'>0.78442E+02</wgt>
<wgt id='5024'>0.77347E+02</wgt>
<wgt id='5025'>0.78628E+02</wgt>
<wgt id='5026'>0.77561E+02</wgt>
<wgt id='5027'>0.78071E+02</wgt>
<wgt id='5028'>0.78251E+02</wgt>
<wgt id='5029'>0.77776E+02</wgt>
<wgt id='5030'>0.78303E+02</wgt>
<wgt id='5031'>0.78696E+02</wgt>
<wgt id='5032'>0.76373E+02</wgt>
<wgt id='5033'>0.78451E+02</wgt>
<wgt id='5034'>0.77764E+02</wgt>
<wgt id='5035'>0.77673E+02</wgt>
<wgt id='5036'>0.78718E+02</wgt>
<wgt id='5037'>0.78143E+02</wgt>
<wgt id='5038'>0.78103E+02</wgt>
<wgt id='5039'>0.77758E+02</wgt>
<wgt id='5040'>0.78976E+02</wgt>
<wgt id='5041'>0.78668E+02</wgt>
<wgt id='5042'>0.77543E+02</wgt>
<wgt id='5043'>0.79542E+02</wgt>
<wgt id='5044'>0.76686E+02</wgt>
<wgt id='5045'>0.77847E+02</wgt>
<wgt id='5046'>0.78675E+02</wgt>
<wgt id='5047'>0.77950E+02</wgt>
<wgt id='5048'>0.78744E+02</wgt>
<wgt id='5049'>0.77873E+02</wgt>
<wgt id='5050'>0.78224E+02</wgt>
<wgt id='5051'>0.77912E+02</wgt>
<wgt id='5052'>0.78266E+02</wgt>
<wgt id='5053'>0.78070E+02</wgt>
<wgt id='5054'>0.77954E+02</wgt>
<wgt id='5055'>0.77888E+02</wgt>
<wgt id='5056'>0.78287E+02</wgt>
<wgt id='5057'>0.76838E+02</wgt>
<wgt id='5058'>0.78894E+02</wgt>
<wgt id='5059'>0.78383E+02</wgt>
<wgt id='5060'>0.77928E+02</wgt>
<wgt id='5061'>0.77432E+02</wgt>
<wgt id='5062'>0.78340E+02</wgt>
<wgt id='5063'>0.78955E+02</wgt>
<wgt id='5064'>0.77916E+02</wgt>
<wgt id='5100'>0.78120E+02</wgt>
<wgt id='5101'>0.78098E+02</wgt>
<wgt id='6000'>0.77931E+02</wgt>
<wgt id='6001'>0.77413E+02</wgt>
<wgt id='6002'>0.78217E+02</wgt>
<wgt id='6003'>0.77586E+02</wgt>
<wgt id='6004'>0.76892E+02</wgt>
<wgt id='6005'>0.78038E+02</wgt>
<wgt id='6006'>0.77623E+02</wgt>
<wgt id='6007'>0.78085E+02</wgt>
<wgt id='6008'>0.77984E+02</wgt>
<wgt id='6009'>0.78345E+02</wgt>
<wgt id='6010'>0.77913E+02</wgt>
<wgt id='6011'>0.77452E+02</wgt>
<wgt id='6012'>0.78046E+02</wgt>
<wgt id='6013'>0.78159E+02</wgt>
<wgt id='6014'>0.78034E+02</wgt>
<wgt id='6015'>0.77919E+02</wgt>
<wgt id='6016'>0.78273E+02</wgt>
<wgt id='6017'>0.79925E+02</wgt>
<wgt id='6018'>0.77991E+02</wgt>
<wgt id='6019'>0.77776E+02</wgt>
<wgt id='6020'>0.78217E+02</wgt>
<wgt id='6021'>0.77505E+02</wgt>
<wgt id='6022'>0.77632E+02</wgt>
<wgt id='6023'>0.77916E+02</wgt>
<wgt id='6024'>0.78204E+02</wgt>
<wgt id='6025'>0.77682E+02</wgt>
<wgt id='6026'>0.78115E+02</wgt>
<wgt id='6027'>0.76352E+02</wgt>
<wgt id='6028'>0.77869E+02</wgt>
<wgt id='6029'>0.77960E+02</wgt>
<wgt id='6030'>0.78005E+02</wgt>
<wgt id='6031'>0.77853E+02</wgt>
<wgt id='6032'>0.77928E+02</wgt>
<wgt id='6033'>0.77910E+02</wgt>
<wgt id='6034'>0.77860E+02</wgt>
<wgt id='6035'>0.77918E+02</wgt>
<wgt id='6036'>0.77970E+02</wgt>
<wgt id='6037'>0.77947E+02</wgt>
<wgt id='6038'>0.77942E+02</wgt>
<wgt id='6039'>0.77992E+02</wgt>
<wgt id='6040'>0.77868E+02</wgt>
<wgt id='6041'>0.77149E+02</wgt>
<wgt id='6042'>0.79361E+02</wgt>
<wgt id='7000'>0.86348E+02</wgt>
<wgt id='7001'>0.86406E+02</wgt>
<wgt id='7002'>0.86227E+02</wgt>
<wgt id='7003'>0.86264E+02</wgt>
<wgt id='7004'>0.86369E+02</wgt>
<wgt id='7005'>0.86336E+02</wgt>
<wgt id='7006'>0.86297E+02</wgt>
<wgt id='7007'>0.86158E+02</wgt>
<wgt id='7008'>0.86468E+02</wgt>
<wgt id='7009'>0.86082E+02</wgt>
<wgt id='7010'>0.86548E+02</wgt>
<wgt id='7011'>0.84396E+02</wgt>
<wgt id='7012'>0.88228E+02</wgt>
<wgt id='7013'>0.86710E+02</wgt>
<wgt id='7014'>0.85923E+02</wgt>
<wgt id='7015'>0.86180E+02</wgt>
<wgt id='7016'>0.86465E+02</wgt>
<wgt id='7017'>0.86511E+02</wgt>
<wgt id='7018'>0.86106E+02</wgt>
<wgt id='7019'>0.85108E+02</wgt>
<wgt id='7020'>0.87436E+02</wgt>
<wgt id='7021'>0.86349E+02</wgt>
<wgt id='7022'>0.86228E+02</wgt>
<wgt id='7023'>0.87473E+02</wgt>
<wgt id='7024'>0.85231E+02</wgt>
<wgt id='7025'>0.86001E+02</wgt>
<wgt id='7026'>0.86843E+02</wgt>
<wgt id='7027'>0.85272E+02</wgt>
<wgt id='7028'>0.87522E+02</wgt>
<wgt id='8000'>0.74908E+02</wgt>
<wgt id='8001'>0.74894E+02</wgt>
<wgt id='8002'>0.74921E+02</wgt>
<wgt id='8003'>0.74846E+02</wgt>
<wgt id='8004'>0.74909E+02</wgt>
<wgt id='8005'>0.74976E+02</wgt>
<wgt id='8006'>0.74658E+02</wgt>
<wgt id='8007'>0.75008E+02</wgt>
<wgt id='8008'>0.75009E+02</wgt>
<wgt id='8009'>0.74347E+02</wgt>
<wgt id='8010'>0.75107E+02</wgt>
<wgt id='8011'>0.75079E+02</wgt>
<wgt id='8012'>0.75188E+02</wgt>
<wgt id='8013'>0.74887E+02</wgt>
<wgt id='8014'>0.74910E+02</wgt>
<wgt id='8015'>0.74990E+02</wgt>
<wgt id='8016'>0.74641E+02</wgt>
<wgt id='8017'>0.74755E+02</wgt>
<wgt id='8018'>0.74855E+02</wgt>
<wgt id='8019'>0.75147E+02</wgt>
<wgt id='8020'>0.74829E+02</wgt>
<wgt id='8021'>0.74687E+02</wgt>
<wgt id='8022'>0.74890E+02</wgt>
<wgt id='8023'>0.75218E+02</wgt>
<wgt id='8024'>0.75174E+02</wgt>
<wgt id='8025'>0.74960E+02</wgt>
<wgt id='8026'>0.75314E+02</wgt>
<wgt id='8027'>0.75441E+02</wgt>
<wgt id='8028'>0.74063E+02</wgt>
<wgt id='8029'>0.74269E+02</wgt>
<wgt id='3000'>0.81104E+02</wgt>
<wgt id='3001'>0.82773E+02</wgt>
<wgt id='3002'>0.81947E+02</wgt>
<wgt id='3003'>0.78419E+02</wgt>
<wgt id='3004'>0.78818E+02</wgt>
<wgt id='3005'>0.80724E+02</wgt>
<wgt id='3006'>0.86120E+02</wgt>
<wgt id='3007'>0.80934E+02</wgt>
<wgt id='3008'>0.79508E+02</wgt>
<wgt id='3009'>0.83637E+02</wgt>
<wgt id='3010'>0.76370E+02</wgt>
<wgt id='3011'>0.77535E+02</wgt>
<wgt id='3012'>0.81601E+02</wgt>
<wgt id='3013'>0.78093E+02</wgt>
<wgt id='3014'>0.81177E+02</wgt>
<wgt id='3015'>0.83609E+02</wgt>
<wgt id='3016'>0.82370E+02</wgt>
<wgt id='3017'>0.81670E+02</wgt>
<wgt id='3018'>0.83245E+02</wgt>
<wgt id='3019'>0.82449E+02</wgt>
<wgt id='3020'>0.79984E+02</wgt>
<wgt id='3021'>0.82020E+02</wgt>
<wgt id='3022'>0.83923E+02</wgt>
<wgt id='3023'>0.85194E+02</wgt>
<wgt id='3024'>0.79514E+02</wgt>
<wgt id='3025'>0.84225E+02</wgt>
<wgt id='3026'>0.81913E+02</wgt>
<wgt id='3027'>0.79198E+02</wgt>
<wgt id='3028'>0.81837E+02</wgt>
<wgt id='3029'>0.79127E+02</wgt>
<wgt id='3030'>0.80457E+02</wgt>
<wgt id='3031'>0.80482E+02</wgt>
<wgt id='3032'>0.81669E+02</wgt>
<wgt id='3033'>0.86811E+02</wgt>
<wgt id='3034'>0.78002E+02</wgt>
<wgt id='3035'>0.80596E+02</wgt>
<wgt id='3036'>0.84157E+02</wgt>
<wgt id='3037'>0.82021E+02</wgt>
<wgt id='3038'>0.79132E+02</wgt>
<wgt id='3039'>0.76892E+02</wgt>
<wgt id='3040'>0.80088E+02</wgt>
<wgt id='3041'>0.79485E+02</wgt>
<wgt id='3042'>0.81767E+02</wgt>
<wgt id='3043'>0.81077E+02</wgt>
<wgt id='3044'>0.79054E+02</wgt>
<wgt id='3045'>0.77522E+02</wgt>
<wgt id='3046'>0.81963E+02</wgt>
<wgt id='3047'>0.85117E+02</wgt>
<wgt id='3048'>0.77485E+02</wgt>
<wgt id='3049'>0.82195E+02</wgt>
<wgt id='3050'>0.80521E+02</wgt>
<wgt id='3051'>0.78141E+02</wgt>
<wgt id='3052'>0.83841E+02</wgt>
<wgt id='3053'>0.81500E+02</wgt>
<wgt id='3054'>0.83277E+02</wgt>
<wgt id='3055'>0.79505E+02</wgt>
<wgt id='3056'>0.81284E+02</wgt>
<wgt id='3057'>0.84265E+02</wgt>
<wgt id='3058'>0.83666E+02</wgt>
<wgt id='3059'>0.81310E+02</wgt>
<wgt id='3060'>0.84420E+02</wgt>
<wgt id='3061'>0.83731E+02</wgt>
<wgt id='3062'>0.84017E+02</wgt>
<wgt id='3063'>0.79301E+02</wgt>
<wgt id='3064'>0.78823E+02</wgt>
<wgt id='3065'>0.85525E+02</wgt>
<wgt id='3066'>0.79579E+02</wgt>
<wgt id='3067'>0.79604E+02</wgt>
<wgt id='3068'>0.83518E+02</wgt>
<wgt id='3069'>0.82121E+02</wgt>
<wgt id='3070'>0.79430E+02</wgt>
<wgt id='3071'>0.81373E+02</wgt>
<wgt id='3072'>0.75542E+02</wgt>
<wgt id='3073'>0.82973E+02</wgt>
<wgt id='3074'>0.79484E+02</wgt>
<wgt id='3075'>0.80687E+02</wgt>
<wgt id='3076'>0.80546E+02</wgt>
<wgt id='3077'>0.81521E+02</wgt>
<wgt id='3078'>0.85032E+02</wgt>
<wgt id='3079'>0.83363E+02</wgt>
<wgt id='3080'>0.76071E+02</wgt>
<wgt id='3081'>0.81863E+02</wgt>
<wgt id='3082'>0.82370E+02</wgt>
<wgt id='3083'>0.75655E+02</wgt>
<wgt id='3084'>0.79465E+02</wgt>
<wgt id='3085'>0.81126E+02</wgt>
<wgt id='3086'>0.82314E+02</wgt>
<wgt id='3087'>0.82166E+02</wgt>
<wgt id='3088'>0.79817E+02</wgt>
<wgt id='3089'>0.74299E+02</wgt>
<wgt id='3090'>0.81369E+02</wgt>
<wgt id='3091'>0.81288E+02</wgt>
<wgt id='3092'>0.78942E+02</wgt>
<wgt id='3093'>0.79716E+02</wgt>
<wgt id='3094'>0.82877E+02</wgt>
<wgt id='3095'>0.80108E+02</wgt>
<wgt id='3096'>0.83305E+02</wgt>
<wgt id='3097'>0.79530E+02</wgt>
<wgt id='3098'>0.81634E+02</wgt>
<wgt id='3099'>0.84618E+02</wgt>
<wgt id='3100'>0.80424E+02</wgt>
<wgt id='3200'>0.79670E+02</wgt>
<wgt id='3201'>0.78532E+02</wgt>
<wgt id='3202'>0.81164E+02</wgt>
<wgt id='3203'>0.79814E+02</wgt>
<wgt id='3204'>0.78580E+02</wgt>
<wgt id='3205'>0.83105E+02</wgt>
<wgt id='3206'>0.77016E+02</wgt>
<wgt id='3207'>0.77851E+02</wgt>
<wgt id='3208'>0.79966E+02</wgt>
<wgt id='3209'>0.80014E+02</wgt>
<wgt id='3210'>0.78176E+02</wgt>
<wgt id='3211'>0.77499E+02</wgt>
<wgt id='3212'>0.78830E+02</wgt>
<wgt id='3213'>0.76849E+02</wgt>
<wgt id='3214'>0.82822E+02</wgt>
<wgt id='3215'>0.79437E+02</wgt>
<wgt id='3216'>0.79529E+02</wgt>
<wgt id='3217'>0.80110E+02</wgt>
<wgt id='3218'>0.80543E+02</wgt>
<wgt id='3219'>0.82342E+02</wgt>
<wgt id='3220'>0.79683E+02</wgt>
<wgt id='3221'>0.79689E+02</wgt>
<wgt id='3222'>0.75536E+02</wgt>
<wgt id='3223'>0.80546E+02</wgt>
<wgt id='3224'>0.77692E+02</wgt>
<wgt id='3225'>0.80990E+02</wgt>
<wgt id='3226'>0.76350E+02</wgt>
<wgt id='3227'>0.78804E+02</wgt>
<wgt id='3228'>0.81513E+02</wgt>
<wgt id='3229'>0.79419E+02</wgt>
<wgt id='3230'>0.78472E+02</wgt>
<wgt id='3231'>0.80453E+02</wgt>
<wgt id='3232'>0.81831E+02</wgt>
<wgt id='3233'>0.81138E+02</wgt>
<wgt id='3234'>0.81456E+02</wgt>
<wgt id='3235'>0.76825E+02</wgt>
<wgt id='3236'>0.81308E+02</wgt>
<wgt id='3237'>0.80664E+02</wgt>
<wgt id='3238'>0.80286E+02</wgt>
<wgt id='3239'>0.82561E+02</wgt>
<wgt id='3240'>0.75525E+02</wgt>
<wgt id='3241'>0.85980E+02</wgt>
<wgt id='3242'>0.75446E+02</wgt>
<wgt id='3243'>0.80355E+02</wgt>
<wgt id='3244'>0.78006E+02</wgt>
<wgt id='3245'>0.79166E+02</wgt>
<wgt id='3246'>0.78881E+02</wgt>
<wgt id='3247'>0.78934E+02</wgt>
<wgt id='3248'>0.79107E+02</wgt>
<wgt id='3249'>0.79075E+02</wgt>
<wgt id='3250'>0.75657E+02</wgt>
<wgt id='3251'>0.78610E+02</wgt>
<wgt id='3252'>0.80150E+02</wgt>
<wgt id='3253'>0.81751E+02</wgt>
<wgt id='3254'>0.80188E+02</wgt>
<wgt id='3255'>0.73856E+02</wgt>
<wgt id='3256'>0.80122E+02</wgt>
<wgt id='3257'>0.75394E+02</wgt>
<wgt id='3258'>0.80389E+02</wgt>
<wgt id='3259'>0.80232E+02</wgt>
<wgt id='3260'>0.81301E+02</wgt>
<wgt id='3261'>0.78179E+02</wgt>
<wgt id='3262'>0.78915E+02</wgt>
<wgt id='3263'>0.81071E+02</wgt>
<wgt id='3264'>0.77843E+02</wgt>
<wgt id='3265'>0.79196E+02</wgt>
<wgt id='3266'>0.80664E+02</wgt>
<wgt id='3267'>0.79495E+02</wgt>
<wgt id='3268'>0.79080E+02</wgt>
<wgt id='3269'>0.79637E+02</wgt>
<wgt id='3270'>0.80695E+02</wgt>
<wgt id='3271'>0.79227E+02</wgt>
<wgt id='3272'>0.79591E+02</wgt>
<wgt id='3273'>0.78376E+02</wgt>
<wgt id='3274'>0.79834E+02</wgt>
<wgt id='3275'>0.80539E+02</wgt>
<wgt id='3276'>0.80071E+02</wgt>
<wgt id='3277'>0.83314E+02</wgt>
<wgt id='3278'>0.78783E+02</wgt>
<wgt id='3279'>0.80443E+02</wgt>
<wgt id='3280'>0.81947E+02</wgt>
<wgt id='3281'>0.78973E+02</wgt>
<wgt id='3282'>0.82953E+02</wgt>
<wgt id='3283'>0.79562E+02</wgt>
<wgt id='3284'>0.78489E+02</wgt>
<wgt id='3285'>0.79486E+02</wgt>
<wgt id='3286'>0.79267E+02</wgt>
<wgt id='3287'>0.79158E+02</wgt>
<wgt id='3288'>0.81192E+02</wgt>
<wgt id='3289'>0.79984E+02</wgt>
<wgt id='3290'>0.80004E+02</wgt>
<wgt id='3291'>0.77554E+02</wgt>
<wgt id='3292'>0.79809E+02</wgt>
<wgt id='3293'>0.79668E+02</wgt>
<wgt id='3294'>0.81009E+02</wgt>
<wgt id='3295'>0.81874E+02</wgt>
<wgt id='3296'>0.79085E+02</wgt>
<wgt id='3297'>0.84261E+02</wgt>
<wgt id='3298'>0.78449E+02</wgt>
<wgt id='3299'>0.80995E+02</wgt>
<wgt id='3300'>0.83387E+02</wgt>
<wgt id='3301'>0.79069E+02</wgt>
<wgt id='3302'>0.80079E+02</wgt>
<wgt id='3400'>0.80511E+02</wgt>
<wgt id='3401'>0.78544E+02</wgt>
<wgt id='3402'>0.80400E+02</wgt>
<wgt id='3403'>0.81753E+02</wgt>
<wgt id='3404'>0.80706E+02</wgt>
<wgt id='3405'>0.79034E+02</wgt>
<wgt id='3406'>0.83040E+02</wgt>
<wgt id='3407'>0.76966E+02</wgt>
<wgt id='3408'>0.79559E+02</wgt>
<wgt id='3409'>0.81597E+02</wgt>
<wgt id='3410'>0.80965E+02</wgt>
<wgt id='3411'>0.78446E+02</wgt>
<wgt id='3412'>0.80420E+02</wgt>
<wgt id='3413'>0.78769E+02</wgt>
<wgt id='3414'>0.82344E+02</wgt>
<wgt id='3415'>0.80409E+02</wgt>
<wgt id='3416'>0.82167E+02</wgt>
<wgt id='3417'>0.82032E+02</wgt>
<wgt id='3418'>0.79989E+02</wgt>
<wgt id='3419'>0.82046E+02</wgt>
<wgt id='3420'>0.81824E+02</wgt>
<wgt id='3421'>0.79802E+02</wgt>
<wgt id='3422'>0.80357E+02</wgt>
<wgt id='3423'>0.80649E+02</wgt>
<wgt id='3424'>0.80501E+02</wgt>
<wgt id='3425'>0.78637E+02</wgt>
<wgt id='3426'>0.79294E+02</wgt>
<wgt id='3427'>0.79467E+02</wgt>
<wgt id='3428'>0.82659E+02</wgt>
<wgt id='3429'>0.80699E+02</wgt>
<wgt id='3430'>0.79431E+02</wgt>
<wgt id='3431'>0.80363E+02</wgt>
<wgt id='3432'>0.81308E+02</wgt>
<wgt id='3433'>0.80006E+02</wgt>
<wgt id='3434'>0.79793E+02</wgt>
<wgt id='3435'>0.81457E+02</wgt>
<wgt id='3436'>0.80515E+02</wgt>
<wgt id='3437'>0.81822E+02</wgt>
<wgt id='3438'>0.80967E+02</wgt>
<wgt id='3439'>0.82476E+02</wgt>
<wgt id='3440'>0.81785E+02</wgt>
<wgt id='3441'>0.81225E+02</wgt>
<wgt id='3442'>0.79486E+02</wgt>
<wgt id='3443'>0.81737E+02</wgt>
<wgt id='3444'>0.79681E+02</wgt>
<wgt id='3445'>0.79404E+02</wgt>
<wgt id='3446'>0.80538E+02</wgt>
<wgt id='3447'>0.80417E+02</wgt>
<wgt id='3448'>0.85111E+02</wgt>
<wgt id='3449'>0.80868E+02</wgt>
<wgt id='3450'>0.77922E+02</wgt>
<wgt id='3451'>0.83673E+02</wgt>
<wgt id='3452'>0.79560E+02</wgt>
<wgt id='3453'>0.77502E+02</wgt>
<wgt id='3454'>0.80021E+02</wgt>
<wgt id='3455'>0.81603E+02</wgt>
<wgt id='3456'>0.79950E+02</wgt>
<wgt id='3457'>0.79651E+02</wgt>
<wgt id='3458'>0.79559E+02</wgt>
<wgt id='3459'>0.80693E+02</wgt>
<wgt id='3460'>0.80754E+02</wgt>
<wgt id='3461'>0.81473E+02</wgt>
<wgt id='3462'>0.79339E+02</wgt>
<wgt id='3463'>0.80739E+02</wgt>
<wgt id='3464'>0.80556E+02</wgt>
<wgt id='3465'>0.79236E+02</wgt>
<wgt id='3466'>0.78587E+02</wgt>
<wgt id='3467'>0.82329E+02</wgt>
<wgt id='3468'>0.81104E+02</wgt>
<wgt id='3469'>0.82023E+02</wgt>
<wgt id='3470'>0.81283E+02</wgt>
<wgt id='3471'>0.79326E+02</wgt>
<wgt id='3472'>0.79723E+02</wgt>
<wgt id='3473'>0.81294E+02</wgt>
<wgt id='3474'>0.80077E+02</wgt>
<wgt id='3475'>0.81899E+02</wgt>
<wgt id='3476'>0.83125E+02</wgt>
<wgt id='3477'>0.77771E+02</wgt>
<wgt id='3478'>0.80650E+02</wgt>
<wgt id='3479'>0.77944E+02</wgt>
<wgt id='3480'>0.82031E+02</wgt>
<wgt id='3481'>0.80444E+02</wgt>
<wgt id='3482'>0.79706E+02</wgt>
<wgt id='3483'>0.80431E+02</wgt>
<wgt id='3484'>0.79876E+02</wgt>
<wgt id='3485'>0.79807E+02</wgt>
<wgt id='3486'>0.81072E+02</wgt>
<wgt id='3487'>0.78173E+02</wgt>
<wgt id='3488'>0.80039E+02</wgt>
<wgt id='3489'>0.78694E+02</wgt>
<wgt id='3490'>0.78395E+02</wgt>
<wgt id='3491'>0.82916E+02</wgt>
<wgt id='3492'>0.82752E+02</wgt>
<wgt id='3493'>0.80010E+02</wgt>
<wgt id='3494'>0.81063E+02</wgt>
<wgt id='3495'>0.81704E+02</wgt>
<wgt id='3496'>0.81744E+02</wgt>
<wgt id='3497'>0.80367E+02</wgt>
<wgt id='3498'>0.80976E+02</wgt>
<wgt id='3499'>0.79562E+02</wgt>
<wgt id='3500'>0.80834E+02</wgt>
</rwgt>
</event>
<event>
     13 322200  8.11039E+01  3.70224E+01 -1.00000E+00  1.44708E-01
      21    -1     0     0   504   505  0.000000000E+00  0.000000000E+00  2.451651116E+02  2.451651116E+02  0.000000000E+00  0.00000E+00  9.000E+00
      21    -1     0     0   502   503  0.000000000E+00  0.000000000E+00 -3.560806695E+02  3.560806695E+02  0.000000000E+00  0.00000E+00  9.000E+00
       6     2     1     2   502     0 -1.426665031E+02  1.776169527E+02  5.964780422E+00  2.840072739E+02  1.694787303E+02  0.00000E+00  9.000E+00
      -6     2     1     2     0   505  1.161345554E+02 -1.517961163E+02 -1.106809132E+02  2.797006234E+02  1.716184090E+02  0.00000E+00  9.000E+00
      21     1     1     2   504   503  2.653194778E+01 -2.582083644E+01 -6.199425224E+00  3.753788380E+01  5.840038640E-07  0.00000E+00  9.000E+00
      24     2     3     3     0     0 -1.609627546E+01  5.063871557E+01 -3.225230854E+01  1.006234013E+02  7.912956390E+01  0.00000E+00  9.000E+00
       5     1     3     3   502     0 -1.265702277E+02  1.269782372E+02  3.821708896E+01  1.833838726E+02  5.060000000E+00  0.00000E+00 -1.000E+00
     -24     2     4     4     0     0  3.994387284E+00 -7.974764371E+01 -7.006808253E+00  1.107618081E+02  7.644240288E+01  0.00000E+00  9.000E+00
      -5     1     4     4     0   505  1.121401681E+02 -7.204847260E+01 -1.036741049E+02  1.689388153E+02  5.060000000E+00  0.00000E+00  1.000E+00
     -15     1     6     6     0     0 -3.915603022E+01  1.163076849E+00 -4.748145903E+00  3.950000087E+01  1.777000000E+00  0.00000E+00  1.000E+00
      16     1     6     6     0     0  2.305975476E+01  4.947563872E+01 -2.750416264E+01  6.112340042E+01  0.000000000E+00  0.00000E+00 -1.000E+00
      13     1     8     8     0     0  1.949806221E+01 -8.409110722E+01 -2.165285279E+01  8.899632549E+01  1.057000000E-01  0.00000E+00 -1.000E+00
     -14     1     8     8     0     0 -1.550367492E+01  4.343463516E+00  1.464604454E+01  2.176548258E+01  0.000000000E+00  0.00000E+00  1.000E+00
#rwgt            1           1   596.06764986177109               10         197           0
<rwgt>
<wgt id='1001'>0.81104E+02</wgt>
<wgt id='1002'>0.70518E+02</wgt>
<wgt id='1003'>0.92840E+02</wgt>
<wgt id='1004'>0.72616E+02</wgt>
<wgt id='1005'>0.63765E+02</wgt>
<wgt id='1006'>0.82408E+02</wgt>
<wgt id='1007'>0.90624E+02</wgt>
<wgt id='1008'>0.77729E+02</wgt>
<wgt id='1009'>0.10496E+03</wgt>
<wgt id='2000'>0.81104E+02</wgt>
<wgt id='2001'>0.81208E+02</wgt>
<wgt id='2002'>0.80900E+02</wgt>
<wgt id='2003'>0.81016E+02</wgt>
<wgt id='2004'>0.81259E+02</wgt>
<wgt id='2005'>0.81176E+02</wgt>
<wgt id='2006'>0.81289E+02</wgt>
<wgt id='2007'>0.81201E+02</wgt>
<wgt id='2008'>0.81430E+02</wgt>
<wgt id='2009'>0.81010E+02</wgt>
<wgt id='2010'>0.81092E+02</wgt>
<wgt id='2011'>0.80863E+02</wgt>
<wgt id='2012'>0.81234E+02</wgt>
<wgt id='2013'>0.81296E+02</wgt>
<wgt id='2014'>0.81431E+02</wgt>
<wgt id='2015'>0.81304E+02</wgt>
<wgt id='2016'>0.81174E+02</wgt>
<wgt id='2017'>0.81170E+02</wgt>
<wgt id='2018'>0.80860E+02</wgt>
<wgt id='2019'>0.81417E+02</wgt>
<wgt id='2020'>0.80892E+02</wgt>
<wgt id='2021'>0.80975E+02</wgt>
<wgt id='2022'>0.80904E+02</wgt>
<wgt id='2023'>0.81050E+02</wgt>
<wgt id='2024'>0.81072E+02</wgt>
<wgt id='2025'>0.81104E+02</wgt>
<wgt id='2026'>0.80999E+02</wgt>
<wgt id='2027'>0.80802E+02</wgt>
<wgt id='2028'>0.81234E+02</wgt>
<wgt id='2029'>0.80787E+02</wgt>
<wgt id='2030'>0.81073E+02</wgt>
<wgt id='2031'>0.80829E+02</wgt>
<wgt id='2032'>0.81123E+02</wgt>
<wgt id='2033'>0.81003E+02</wgt>
<wgt id='2034'>0.80972E+02</wgt>
<wgt id='2035'>0.81115E+02</wgt>
<wgt id='2036'>0.81268E+02</wgt>
<wgt id='2037'>0.81085E+02</wgt>
<wgt id='2038'>0.81057E+02</wgt>
<wgt id='2039'>0.81108E+02</wgt>
<wgt id='2040'>0.81057E+02</wgt>
<wgt id='2041'>0.81099E+02</wgt>
<wgt id='2042'>0.81146E+02</wgt>
<wgt id='2043'>0.81050E+02</wgt>
<wgt id='2044'>0.81174E+02</wgt>
<wgt id='2045'>0.81108E+02</wgt>
<wgt id='2046'>0.81117E+02</wgt>
<wgt id='2047'>0.81087E+02</wgt>
<wgt id='2048'>0.81070E+02</wgt>
<wgt id='2049'>0.81042E+02</wgt>
<wgt id='2050'>0.81075E+02</wgt>
<wgt id='2051'>0.81102E+02</wgt>
<wgt id='2052'>0.81173E+02</wgt>
<wgt id='2053'>0.81091E+02</wgt>
<wgt id='2054'>0.81099E+02</wgt>
<wgt id='2055'>0.81120E+02</wgt>
<wgt id='2056'>0.81066E+02</wgt>
<wgt id='2057'>0.81133E+02</wgt>
<wgt id='2058'>0.81119E+02</wgt>
<wgt id='2059'>0.81117E+02</wgt>
<wgt id='2060'>0.81107E+02</wgt>
<wgt id='2061'>0.81087E+02</wgt>
<wgt id='2062'>0.81170E+02</wgt>
<wgt id='2063'>0.81124E+02</wgt>
<wgt id='2064'>0.81120E+02</wgt>
<wgt id='2065'>0.81175E+02</wgt>
<wgt id='2066'>0.81105E+02</wgt>
<wgt id='2067'>0.81125E+02</wgt>
<wgt id='2068'>0.81122E+02</wgt>
<wgt id='2069'>0.81106E+02</wgt>
<wgt id='2070'>0.81114E+02</wgt>
<wgt id='2071'>0.81105E+02</wgt>
<wgt id='2072'>0.81106E+02</wgt>
<wgt id='2073'>0.81125E+02</wgt>
<wgt id='2074'>0.81081E+02</wgt>
<wgt id='2075'>0.81091E+02</wgt>
<wgt id='2076'>0.81092E+02</wgt>
<wgt id='2077'>0.81149E+02</wgt>
<wgt id='2078'>0.81113E+02</wgt>
<wgt id='2079'>0.81084E+02</wgt>
<wgt id='2080'>0.81108E+02</wgt>
<wgt id='2081'>0.81092E+02</wgt>
<wgt id='2082'>0.81113E+02</wgt>
<wgt id='2083'>0.81134E+02</wgt>
<wgt id='2084'>0.81109E+02</wgt>
<wgt id='2085'>0.81102E+02</wgt>
<wgt id='2086'>0.81093E+02</wgt>
<wgt id='2087'>0.81112E+02</wgt>
<wgt id='2088'>0.81097E+02</wgt>
<wgt id='2089'>0.81094E+02</wgt>
<wgt id='2090'>0.81120E+02</wgt>
<wgt id='2091'>0.81104E+02</wgt>
<wgt id='2092'>0.81120E+02</wgt>
<wgt id='2093'>0.81088E+02</wgt>
<wgt id='2094'>0.81107E+02</wgt>
<wgt id='2095'>0.81116E+02</wgt>
<wgt id='2096'>0.81093E+02</wgt>
<wgt id='2097'>0.81113E+02</wgt>
<wgt id='2098'>0.81101E+02</wgt>
<wgt id='2099'>0.81115E+02</wgt>
<wgt id='2100'>0.81104E+02</wgt>
<wgt id='2101'>0.79051E+02</wgt>
<wgt id='2102'>0.83210E+02</wgt>
<wgt id='2200'>0.81193E+02</wgt>
<wgt id='2201'>0.71716E+02</wgt>
<wgt id='2202'>0.73519E+02</wgt>
<wgt id='2203'>0.75683E+02</wgt>
<wgt id='2204'>0.77567E+02</wgt>
<wgt id='2205'>0.80303E+02</wgt>
<wgt id='2206'>0.82302E+02</wgt>
<wgt id='2207'>0.84765E+02</wgt>
<wgt id='2208'>0.86717E+02</wgt>
<wgt id='2300'>0.84466E+02</wgt>
<wgt id='2301'>0.84528E+02</wgt>
<wgt id='2302'>0.84456E+02</wgt>
<wgt id='2303'>0.84504E+02</wgt>
<wgt id='2304'>0.84635E+02</wgt>
<wgt id='2305'>0.84623E+02</wgt>
<wgt id='2306'>0.84427E+02</wgt>
<wgt id='2307'>0.84688E+02</wgt>
<wgt id='2308'>0.84431E+02</wgt>
<wgt id='2309'>0.84719E+02</wgt>
<wgt id='2310'>0.84352E+02</wgt>
<wgt id='2311'>0.84304E+02</wgt>
<wgt id='2312'>0.84559E+02</wgt>
<wgt id='2313'>0.84562E+02</wgt>
<wgt id='2314'>0.84582E+02</wgt>
<wgt id='2315'>0.84294E+02</wgt>
<wgt id='2316'>0.84509E+02</wgt>
<wgt id='2317'>0.84560E+02</wgt>
<wgt id='2318'>0.84685E+02</wgt>
<wgt id='2319'>0.84294E+02</wgt>
<wgt id='2320'>0.84224E+02</wgt>
<wgt id='2321'>0.84185E+02</wgt>
<wgt id='2322'>0.84450E+02</wgt>
<wgt id='2323'>0.84267E+02</wgt>
<wgt id='2324'>0.84138E+02</wgt>
<wgt id='2325'>0.84500E+02</wgt>
<wgt id='2326'>0.84670E+02</wgt>
<wgt id='2327'>0.84488E+02</wgt>
<wgt id='2328'>0.84071E+02</wgt>
<wgt id='2329'>0.84264E+02</wgt>
<wgt id='2330'>0.84739E+02</wgt>
<wgt id='2331'>0.84603E+02</wgt>
<wgt id='2332'>0.84607E+02</wgt>
<wgt id='2333'>0.84663E+02</wgt>
<wgt id='2334'>0.84537E+02</wgt>
<wgt id='2335'>0.84651E+02</wgt>
<wgt id='2336'>0.84515E+02</wgt>
<wgt id='2337'>0.84468E+02</wgt>
<wgt id='2338'>0.84477E+02</wgt>
<wgt id='2339'>0.84407E+02</wgt>
<wgt id='2340'>0.84479E+02</wgt>
<wgt id='2341'>0.84525E+02</wgt>
<wgt id='2342'>0.84344E+02</wgt>
<wgt id='2343'>0.84350E+02</wgt>
<wgt id='2344'>0.84491E+02</wgt>
<wgt id='2345'>0.84545E+02</wgt>
<wgt id='2346'>0.84543E+02</wgt>
<wgt id='2347'>0.84447E+02</wgt>
<wgt id='2348'>0.84530E+02</wgt>
<wgt id='2349'>0.84445E+02</wgt>
<wgt id='2350'>0.84452E+02</wgt>
<wgt id='2351'>0.84588E+02</wgt>
<wgt id='2352'>0.84427E+02</wgt>
<wgt id='2353'>0.84437E+02</wgt>
<wgt id='2354'>0.84453E+02</wgt>
<wgt id='2355'>0.84427E+02</wgt>
<wgt id='2356'>0.84482E+02</wgt>
<wgt id='2357'>0.84424E+02</wgt>
<wgt id='2358'>0.84426E+02</wgt>
<wgt id='2359'>0.84464E+02</wgt>
<wgt id='2360'>0.84487E+02</wgt>
<wgt id='2361'>0.84483E+02</wgt>
<wgt id='2362'>0.84474E+02</wgt>
<wgt id='2363'>0.84496E+02</wgt>
<wgt id='2364'>0.84449E+02</wgt>
<wgt id='2365'>0.84473E+02</wgt>
<wgt id='2366'>0.84482E+02</wgt>
<wgt id='2367'>0.84429E+02</wgt>
<wgt id='2368'>0.84470E+02</wgt>
<wgt id='2369'>0.84434E+02</wgt>
<wgt id='2370'>0.84456E+02</wgt>
<wgt id='2371'>0.84463E+02</wgt>
<wgt id='2372'>0.84477E+02</wgt>
<wgt id='2373'>0.84450E+02</wgt>
<wgt id='2374'>0.84504E+02</wgt>
<wgt id='2375'>0.84474E+02</wgt>
<wgt id='2376'>0.84468E+02</wgt>
<wgt id='2377'>0.84469E+02</wgt>
<wgt id='2378'>0.84489E+02</wgt>
<wgt id='2379'>0.84449E+02</wgt>
<wgt id='2380'>0.84451E+02</wgt>
<wgt id='2381'>0.84460E+02</wgt>
<wgt id='2382'>0.84448E+02</wgt>
<wgt id='2383'>0.84469E+02</wgt>
<wgt id='2384'>0.84456E+02</wgt>
<wgt id='2385'>0.84476E+02</wgt>
<wgt id='2386'>0.84461E+02</wgt>
<wgt id='2387'>0.84458E+02</wgt>
<wgt id='2388'>0.84457E+02</wgt>
<wgt id='2389'>0.84466E+02</wgt>
<wgt id='2390'>0.84470E+02</wgt>
<wgt id='2391'>0.84465E+02</wgt>
<wgt id='2392'>0.84461E+02</wgt>
<wgt id='2393'>0.84468E+02</wgt>
<wgt id='2394'>0.84482E+02</wgt>
<wgt id='2395'>0.84470E+02</wgt>
<wgt id='2396'>0.84455E+02</wgt>
<wgt id='2397'>0.84448E+02</wgt>
<wgt id='2398'>0.84459E+02</wgt>
<wgt id='2399'>0.84478E+02</wgt>
<wgt id='2400'>0.84472E+02</wgt>
<wgt id='2401'>0.82369E+02</wgt>
<wgt id='2402'>0.86548E+02</wgt>
<wgt id='2500'>0.81176E+02</wgt>
<wgt id='2501'>0.85862E+02</wgt>
<wgt id='2600'>0.78224E+02</wgt>
<wgt id='2601'>0.78251E+02</wgt>
<wgt id='2602'>0.78114E+02</wgt>
<wgt id='2603'>0.78184E+02</wgt>
<wgt id='2604'>0.78237E+02</wgt>
<wgt id='2605'>0.78104E+02</wgt>
<wgt id='2606'>0.78048E+02</wgt>
<wgt id='2607'>0.78326E+02</wgt>
<wgt id='2608'>0.78144E+02</wgt>
<wgt id='2609'>0.78137E+02</wgt>
<wgt id='2610'>0.78178E+02</wgt>
<wgt id='2611'>0.78137E+02</wgt>
<wgt id='2612'>0.78569E+02</wgt>
<wgt id='2613'>0.78183E+02</wgt>
<wgt id='2614'>0.78203E+02</wgt>
<wgt id='2615'>0.78069E+02</wgt>
<wgt id='2616'>0.78184E+02</wgt>
<wgt id='2617'>0.78073E+02</wgt>
<wgt id='2618'>0.77997E+02</wgt>
<wgt id='2619'>0.78276E+02</wgt>
<wgt id='2620'>0.78257E+02</wgt>
<wgt id='2621'>0.78189E+02</wgt>
<wgt id='2622'>0.78296E+02</wgt>
<wgt id='2623'>0.78220E+02</wgt>
<wgt id='2624'>0.78240E+02</wgt>
<wgt id='2625'>0.78153E+02</wgt>
<wgt id='2626'>0.78209E+02</wgt>
<wgt id='2627'>0.78180E+02</wgt>
<wgt id='2628'>0.78245E+02</wgt>
<wgt id='2629'>0.78221E+02</wgt>
<wgt id='2630'>0.78204E+02</wgt>
<wgt id='2631'>0.78231E+02</wgt>
<wgt id='2632'>0.78225E+02</wgt>
<wgt id='2633'>0.78228E+02</wgt>
<wgt id='2634'>0.78241E+02</wgt>
<wgt id='2635'>0.78213E+02</wgt>
<wgt id='2636'>0.78216E+02</wgt>
<wgt id='2637'>0.78218E+02</wgt>
<wgt id='2638'>0.78223E+02</wgt>
<wgt id='2639'>0.78222E+02</wgt>
<wgt id='2640'>0.78227E+02</wgt>
<wgt id='2641'>0.78221E+02</wgt>
<wgt id='2642'>0.78222E+02</wgt>
<wgt id='2643'>0.78230E+02</wgt>
<wgt id='2644'>0.78223E+02</wgt>
<wgt id='2645'>0.78220E+02</wgt>
<wgt id='2646'>0.78206E+02</wgt>
<wgt id='2647'>0.78229E+02</wgt>
<wgt id='2648'>0.78226E+02</wgt>
<wgt id='2649'>0.78229E+02</wgt>
<wgt id='2650'>0.78225E+02</wgt>
<wgt id='2651'>0.76934E+02</wgt>
<wgt id='2652'>0.79431E+02</wgt>
<wgt id='2700'>0.75683E+02</wgt>
<wgt id='2701'>0.76934E+02</wgt>
<wgt id='2702'>0.77623E+02</wgt>
<wgt id='2703'>0.78722E+02</wgt>
<wgt id='2704'>0.79431E+02</wgt>
<wgt id='2705'>0.80544E+02</wgt>
<wgt id='2800'>0.79325E+02</wgt>
<wgt id='4000'>0.79791E+02</wgt>
<wgt id='4001'>0.80174E+02</wgt>
<wgt id='4002'>0.79697E+02</wgt>
<wgt id='4003'>0.80276E+02</wgt>
<wgt id='4004'>0.79284E+02</wgt>
<wgt id='4005'>0.79438E+02</wgt>
<wgt id='4006'>0.80134E+02</wgt>
<wgt id='4007'>0.80779E+02</wgt>
<wgt id='4008'>0.78822E+02</wgt>
<wgt id='4009'>0.80361E+02</wgt>
<wgt id='4010'>0.79307E+02</wgt>
<wgt id='4011'>0.80066E+02</wgt>
<wgt id='4012'>0.79539E+02</wgt>
<wgt id='4013'>0.80479E+02</wgt>
<wgt id='4014'>0.79185E+02</wgt>
<wgt id='4015'>0.79424E+02</wgt>
<wgt id='4016'>0.80102E+02</wgt>
<wgt id='4017'>0.79699E+02</wgt>
<wgt id='4018'>0.79932E+02</wgt>
<wgt id='4019'>0.80385E+02</wgt>
<wgt id='4020'>0.78897E+02</wgt>
<wgt id='4021'>0.79871E+02</wgt>
<wgt id='4022'>0.79629E+02</wgt>
<wgt id='4023'>0.79643E+02</wgt>
<wgt id='4024'>0.79981E+02</wgt>
<wgt id='4025'>0.80039E+02</wgt>
<wgt id='4026'>0.79189E+02</wgt>
<wgt id='4027'>0.79670E+02</wgt>
<wgt id='4028'>0.79959E+02</wgt>
<wgt id='4029'>0.78977E+02</wgt>
<wgt id='4030'>0.79873E+02</wgt>
<wgt id='4031'>0.79604E+02</wgt>
<wgt id='4032'>0.79805E+02</wgt>
<wgt id='4033'>0.79782E+02</wgt>
<wgt id='4034'>0.79551E+02</wgt>
<wgt id='4035'>0.80961E+02</wgt>
<wgt id='4036'>0.78904E+02</wgt>
<wgt id='4037'>0.81047E+02</wgt>
<wgt id='4038'>0.78783E+02</wgt>
<wgt id='4039'>0.81093E+02</wgt>
<wgt id='4040'>0.78443E+02</wgt>
<wgt id='4041'>0.79635E+02</wgt>
<wgt id='4042'>0.79826E+02</wgt>
<wgt id='4043'>0.78685E+02</wgt>
<wgt id='4044'>0.80142E+02</wgt>
<wgt id='4045'>0.81478E+02</wgt>
<wgt id='4046'>0.79021E+02</wgt>
<wgt id='4047'>0.78714E+02</wgt>
<wgt id='4048'>0.80268E+02</wgt>
<wgt id='4049'>0.79682E+02</wgt>
<wgt id='4050'>0.79872E+02</wgt>
<wgt id='4051'>0.80854E+02</wgt>
<wgt id='4052'>0.78802E+02</wgt>
<wgt id='4053'>0.80637E+02</wgt>
<wgt id='4054'>0.78604E+02</wgt>
<wgt id='4055'>0.80216E+02</wgt>
<wgt id='4056'>0.79319E+02</wgt>
<wgt id='4057'>0.78973E+02</wgt>
<wgt id='4058'>0.80318E+02</wgt>
<wgt id='4100'>0.80359E+02</wgt>
<wgt id='4101'>0.80097E+02</wgt>
<wgt id='4102'>0.79447E+02</wgt>
<wgt id='4103'>0.79074E+02</wgt>
<wgt id='4200'>0.76397E+02</wgt>
<wgt id='4201'>0.76534E+02</wgt>
<wgt id='4202'>0.76525E+02</wgt>
<wgt id='4203'>0.75719E+02</wgt>
<wgt id='4204'>0.76946E+02</wgt>
<wgt id='4205'>0.76322E+02</wgt>
<wgt id='4206'>0.76610E+02</wgt>
<wgt id='4207'>0.76231E+02</wgt>
<wgt id='4208'>0.76567E+02</wgt>
<wgt id='4209'>0.76636E+02</wgt>
<wgt id='4210'>0.76373E+02</wgt>
<wgt id='4211'>0.77429E+02</wgt>
<wgt id='4212'>0.75594E+02</wgt>
<wgt id='4213'>0.76570E+02</wgt>
<wgt id='4214'>0.76135E+02</wgt>
<wgt id='4215'>0.76525E+02</wgt>
<wgt id='4216'>0.76013E+02</wgt>
<wgt id='4217'>0.76016E+02</wgt>
<wgt id='4218'>0.76686E+02</wgt>
<wgt id='4219'>0.75240E+02</wgt>
<wgt id='4220'>0.77472E+02</wgt>
<wgt id='4221'>0.75808E+02</wgt>
<wgt id='4222'>0.77110E+02</wgt>
<wgt id='4223'>0.76936E+02</wgt>
<wgt id='4224'>0.75616E+02</wgt>
<wgt id='4225'>0.74951E+02</wgt>
<wgt id='4226'>0.77777E+02</wgt>
<wgt id='4227'>0.77021E+02</wgt>
<wgt id='4228'>0.75875E+02</wgt>
<wgt id='4229'>0.75677E+02</wgt>
<wgt id='4230'>0.76885E+02</wgt>
<wgt id='4231'>0.76444E+02</wgt>
<wgt id='4232'>0.76267E+02</wgt>
<wgt id='4233'>0.76701E+02</wgt>
<wgt id='4234'>0.75889E+02</wgt>
<wgt id='4235'>0.76780E+02</wgt>
<wgt id='4236'>0.76100E+02</wgt>
<wgt id='4237'>0.76440E+02</wgt>
<wgt id='4238'>0.76105E+02</wgt>
<wgt id='4239'>0.77055E+02</wgt>
<wgt id='4240'>0.74978E+02</wgt>
<wgt id='4241'>0.76025E+02</wgt>
<wgt id='4242'>0.76791E+02</wgt>
<wgt id='4243'>0.76327E+02</wgt>
<wgt id='4244'>0.76735E+02</wgt>
<wgt id='4245'>0.75584E+02</wgt>
<wgt id='4246'>0.77156E+02</wgt>
<wgt id='4247'>0.76131E+02</wgt>
<wgt id='4248'>0.76498E+02</wgt>
<wgt id='4249'>0.77615E+02</wgt>
<wgt id='4250'>0.74992E+02</wgt>
<wgt id='4251'>0.75716E+02</wgt>
<wgt id='4252'>0.76755E+02</wgt>
<wgt id='4253'>0.76091E+02</wgt>
<wgt id='4254'>0.76566E+02</wgt>
<wgt id='4255'>0.76651E+02</wgt>
<wgt id='4256'>0.76167E+02</wgt>
<wgt id='4257'>0.74972E+02</wgt>
<wgt id='4258'>0.76803E+02</wgt>
<wgt id='4300'>0.79032E+02</wgt>
<wgt id='4301'>0.77874E+02</wgt>
<wgt id='5000'>0.79308E+02</wgt>
<wgt id='5001'>0.79347E+02</wgt>
<wgt id='5002'>0.79259E+02</wgt>
<wgt id='5003'>0.79327E+02</wgt>
<wgt id='5004'>0.79292E+02</wgt>
<wgt id='5005'>0.79315E+02</wgt>
<wgt id='5006'>0.79296E+02</wgt>
<wgt id='5007'>0.79362E+02</wgt>
<wgt id='5008'>0.79265E+02</wgt>
<wgt id='5009'>0.79425E+02</wgt>
<wgt id='5010'>0.79188E+02</wgt>
<wgt id='5011'>0.79472E+02</wgt>
<wgt id='5012'>0.79150E+02</wgt>
<wgt id='5013'>0.79442E+02</wgt>
<wgt id='5014'>0.79213E+02</wgt>
<wgt id='5015'>0.78919E+02</wgt>
<wgt id='5016'>0.78919E+02</wgt>
<wgt id='5017'>0.79735E+02</wgt>
<wgt id='5018'>0.79020E+02</wgt>
<wgt id='5019'>0.79594E+02</wgt>
<wgt id='5020'>0.78916E+02</wgt>
<wgt id='5021'>0.79389E+02</wgt>
<wgt id='5022'>0.79183E+02</wgt>
<wgt id='5023'>0.79228E+02</wgt>
<wgt id='5024'>0.79500E+02</wgt>
<wgt id='5025'>0.79043E+02</wgt>
<wgt id='5026'>0.79605E+02</wgt>
<wgt id='5027'>0.79349E+02</wgt>
<wgt id='5028'>0.79200E+02</wgt>
<wgt id='5029'>0.80019E+02</wgt>
<wgt id='5030'>0.78907E+02</wgt>
<wgt id='5031'>0.78945E+02</wgt>
<wgt id='5032'>0.80415E+02</wgt>
<wgt id='5033'>0.79301E+02</wgt>
<wgt id='5034'>0.79316E+02</wgt>
<wgt id='5035'>0.79313E+02</wgt>
<wgt id='5036'>0.79303E+02</wgt>
<wgt id='5037'>0.79177E+02</wgt>
<wgt id='5038'>0.79383E+02</wgt>
<wgt id='5039'>0.79514E+02</wgt>
<wgt id='5040'>0.78798E+02</wgt>
<wgt id='5041'>0.79503E+02</wgt>
<wgt id='5042'>0.79110E+02</wgt>
<wgt id='5043'>0.79443E+02</wgt>
<wgt id='5044'>0.79227E+02</wgt>
<wgt id='5045'>0.79112E+02</wgt>
<wgt id='5046'>0.79694E+02</wgt>
<wgt id='5047'>0.79349E+02</wgt>
<wgt id='5048'>0.79128E+02</wgt>
<wgt id='5049'>0.79284E+02</wgt>
<wgt id='5050'>0.79371E+02</wgt>
<wgt id='5051'>0.79431E+02</wgt>
<wgt id='5052'>0.79203E+02</wgt>
<wgt id='5053'>0.79232E+02</wgt>
<wgt id='5054'>0.79451E+02</wgt>
<wgt id='5055'>0.79350E+02</wgt>
<wgt id='5056'>0.79339E+02</wgt>
<wgt id='5057'>0.79059E+02</wgt>
<wgt id='5058'>0.79483E+02</wgt>
<wgt id='5059'>0.79290E+02</wgt>
<wgt id='5060'>0.79328E+02</wgt>
<wgt id='5061'>0.79591E+02</wgt>
<wgt id='5062'>0.79323E+02</wgt>
<wgt id='5063'>0.79613E+02</wgt>
<wgt id='5064'>0.79236E+02</wgt>
<wgt id='5100'>0.79308E+02</wgt>
<wgt id='5101'>0.79327E+02</wgt>
<wgt id='6000'>0.79520E+02</wgt>
<wgt id='6001'>0.79682E+02</wgt>
<wgt id='6002'>0.79565E+02</wgt>
<wgt id='6003'>0.79481E+02</wgt>
<wgt id='6004'>0.79510E+02</wgt>
<wgt id='6005'>0.79386E+02</wgt>
<wgt id='6006'>0.79806E+02</wgt>
<wgt id='6007'>0.79375E+02</wgt>
<wgt id='6008'>0.79010E+02</wgt>
<wgt id='6009'>0.79827E+02</wgt>
<wgt id='6010'>0.78379E+02</wgt>
<wgt id='6011'>0.79494E+02</wgt>
<wgt id='6012'>0.79793E+02</wgt>
<wgt id='6013'>0.79311E+02</wgt>
<wgt id='6014'>0.79451E+02</wgt>
<wgt id='6015'>0.78970E+02</wgt>
<wgt id='6016'>0.79591E+02</wgt>
<wgt id='6017'>0.79538E+02</wgt>
<wgt id='6018'>0.79376E+02</wgt>
<wgt id='6019'>0.79577E+02</wgt>
<wgt id='6020'>0.79696E+02</wgt>
<wgt id='6021'>0.79607E+02</wgt>
<wgt id='6022'>0.79530E+02</wgt>
<wgt id='6023'>0.79558E+02</wgt>
<wgt id='6024'>0.79598E+02</wgt>
<wgt id='6025'>0.79762E+02</wgt>
<wgt id='6026'>0.79569E+02</wgt>
<wgt id='6027'>0.79546E+02</wgt>
<wgt id='6028'>0.79377E+02</wgt>
<wgt id='6029'>0.79362E+02</wgt>
<wgt id='6030'>0.80200E+02</wgt>
<wgt id='6031'>0.79353E+02</wgt>
<wgt id='6032'>0.79554E+02</wgt>
<wgt id='6033'>0.79397E+02</wgt>
<wgt id='6034'>0.79740E+02</wgt>
<wgt id='6035'>0.79568E+02</wgt>
<wgt id='6036'>0.79954E+02</wgt>
<wgt id='6037'>0.79535E+02</wgt>
<wgt id='6038'>0.79586E+02</wgt>
<wgt id='6039'>0.79661E+02</wgt>
<wgt id='6040'>0.79505E+02</wgt>
<wgt id='6041'>0.77924E+02</wgt>
<wgt id='6042'>0.79664E+02</wgt>
<wgt id='7000'>0.78922E+02</wgt>
<wgt id='7001'>0.77868E+02</wgt>
<wgt id='7002'>0.78036E+02</wgt>
<wgt id='7003'>0.77919E+02</wgt>
<wgt id='7004'>0.77986E+02</wgt>
<wgt id='7005'>0.78049E+02</wgt>
<wgt id='7006'>0.77855E+02</wgt>
<wgt id='7007'>0.78440E+02</wgt>
<wgt id='7008'>0.77479E+02</wgt>
<wgt id='7009'>0.77623E+02</wgt>
<wgt id='7010'>0.78293E+02</wgt>
<wgt id='7011'>0.78216E+02</wgt>
<wgt id='7012'>0.77691E+02</wgt>
<wgt id='7013'>0.77830E+02</wgt>
<wgt id='7014'>0.78066E+02</wgt>
<wgt id='7015'>0.77852E+02</wgt>
<wgt id='7016'>0.77820E+02</wgt>
<wgt id='7017'>0.77982E+02</wgt>
<wgt id='7018'>0.77927E+02</wgt>
<wgt id='7019'>0.77795E+02</wgt>
<wgt id='7020'>0.78119E+02</wgt>
<wgt id='7021'>0.78055E+02</wgt>
<wgt id='7022'>0.77840E+02</wgt>
<wgt id='7023'>0.77666E+02</wgt>
<wgt id='7024'>0.78254E+02</wgt>
<wgt id='7025'>0.77073E+02</wgt>
<wgt id='7026'>0.78774E+02</wgt>
<wgt id='7027'>0.77604E+02</wgt>
<wgt id='7028'>0.78346E+02</wgt>
<wgt id='8000'>0.79352E+02</wgt>
<wgt id='8001'>0.79344E+02</wgt>
<wgt id='8002'>0.79376E+02</wgt>
<wgt id='8003'>0.79354E+02</wgt>
<wgt id='8004'>0.79350E+02</wgt>
<wgt id='8005'>0.79214E+02</wgt>
<wgt id='8006'>0.79435E+02</wgt>
<wgt id='8007'>0.79516E+02</wgt>
<wgt id='8008'>0.79527E+02</wgt>
<wgt id='8009'>0.79676E+02</wgt>
<wgt id='8010'>0.79263E+02</wgt>
<wgt id='8011'>0.79366E+02</wgt>
<wgt id='8012'>0.79053E+02</wgt>
<wgt id='8013'>0.79196E+02</wgt>
<wgt id='8014'>0.79542E+02</wgt>
<wgt id='8015'>0.79309E+02</wgt>
<wgt id='8016'>0.79423E+02</wgt>
<wgt id='8017'>0.79397E+02</wgt>
<wgt id='8018'>0.79540E+02</wgt>
<wgt id='8019'>0.79426E+02</wgt>
<wgt id='8020'>0.79282E+02</wgt>
<wgt id='8021'>0.79293E+02</wgt>
<wgt id='8022'>0.79216E+02</wgt>
<wgt id='8023'>0.79289E+02</wgt>
<wgt id='8024'>0.79145E+02</wgt>
<wgt id='8025'>0.79348E+02</wgt>
<wgt id='8026'>0.79465E+02</wgt>
<wgt id='8027'>0.79392E+02</wgt>
<wgt id='8028'>0.79412E+02</wgt>
<wgt id='8029'>0.79148E+02</wgt>
<wgt id='3000'>0.81104E+02</wgt>
<wgt id='3001'>0.81283E+02</wgt>
<wgt id='3002'>0.80311E+02</wgt>
<wgt id='3003'>0.83117E+02</wgt>
<wgt id='3004'>0.81840E+02</wgt>
<wgt id='3005'>0.80464E+02</wgt>
<wgt id='3006'>0.83867E+02</wgt>
<wgt id='3007'>0.80737E+02</wgt>
<wgt id='3008'>0.80077E+02</wgt>
<wgt id='3009'>0.81943E+02</wgt>
<wgt id='3010'>0.82702E+02</wgt>
<wgt id='3011'>0.82806E+02</wgt>
<wgt id='3012'>0.81917E+02</wgt>
<wgt id='3013'>0.80185E+02</wgt>
<wgt id='3014'>0.80510E+02</wgt>
<wgt id='3015'>0.80776E+02</wgt>
<wgt id='3016'>0.82022E+02</wgt>
<wgt id='3017'>0.82531E+02</wgt>
<wgt id='3018'>0.81179E+02</wgt>
<wgt id='3019'>0.79053E+02</wgt>
<wgt id='3020'>0.79997E+02</wgt>
<wgt id='3021'>0.79588E+02</wgt>
<wgt id='3022'>0.78805E+02</wgt>
<wgt id='3023'>0.79325E+02</wgt>
<wgt id='3024'>0.79706E+02</wgt>
<wgt id='3025'>0.79677E+02</wgt>
<wgt id='3026'>0.80430E+02</wgt>
<wgt id='3027'>0.79393E+02</wgt>
<wgt id='3028'>0.81850E+02</wgt>
<wgt id='3029'>0.82200E+02</wgt>
<wgt id='3030'>0.82853E+02</wgt>
<wgt id='3031'>0.82123E+02</wgt>
<wgt id='3032'>0.82825E+02</wgt>
<wgt id='3033'>0.80201E+02</wgt>
<wgt id='3034'>0.81248E+02</wgt>
<wgt id='3035'>0.81973E+02</wgt>
<wgt id='3036'>0.81092E+02</wgt>
<wgt id='3037'>0.81296E+02</wgt>
<wgt id='3038'>0.80880E+02</wgt>
<wgt id='3039'>0.81543E+02</wgt>
<wgt id='3040'>0.80885E+02</wgt>
<wgt id='3041'>0.81108E+02</wgt>
<wgt id='3042'>0.81100E+02</wgt>
<wgt id='3043'>0.81015E+02</wgt>
<wgt id='3044'>0.80922E+02</wgt>
<wgt id='3045'>0.81042E+02</wgt>
<wgt id='3046'>0.81657E+02</wgt>
<wgt id='3047'>0.80631E+02</wgt>
<wgt id='3048'>0.79504E+02</wgt>
<wgt id='3049'>0.81699E+02</wgt>
<wgt id='3050'>0.82578E+02</wgt>
<wgt id='3051'>0.81555E+02</wgt>
<wgt id='3052'>0.80005E+02</wgt>
<wgt id='3053'>0.80519E+02</wgt>
<wgt id='3054'>0.81714E+02</wgt>
<wgt id='3055'>0.79484E+02</wgt>
<wgt id='3056'>0.80660E+02</wgt>
<wgt id='3057'>0.80565E+02</wgt>
<wgt id='3058'>0.79399E+02</wgt>
<wgt id='3059'>0.82039E+02</wgt>
<wgt id='3060'>0.81502E+02</wgt>
<wgt id='3061'>0.81194E+02</wgt>
<wgt id='3062'>0.80871E+02</wgt>
<wgt id='3063'>0.78853E+02</wgt>
<wgt id='3064'>0.80694E+02</wgt>
<wgt id='3065'>0.80331E+02</wgt>
<wgt id='3066'>0.81438E+02</wgt>
<wgt id='3067'>0.79700E+02</wgt>
<wgt id='3068'>0.81633E+02</wgt>
<wgt id='3069'>0.80753E+02</wgt>
<wgt id='3070'>0.80040E+02</wgt>
<wgt id='3071'>0.82055E+02</wgt>
<wgt id='3072'>0.80601E+02</wgt>
<wgt id='3073'>0.81843E+02</wgt>
<wgt id='3074'>0.81766E+02</wgt>
<wgt id='3075'>0.82436E+02</wgt>
<wgt id='3076'>0.82525E+02</wgt>
<wgt id='3077'>0.80024E+02</wgt>
<wgt id='3078'>0.81997E+02</wgt>
<wgt id='3079'>0.80693E+02</wgt>
<wgt id='3080'>0.81426E+02</wgt>
<wgt id='3081'>0.79582E+02</wgt>
<wgt id='3082'>0.82022E+02</wgt>
<wgt id='3083'>0.81255E+02</wgt>
<wgt id='3084'>0.80862E+02</wgt>
<wgt id='3085'>0.83554E+02</wgt>
<wgt id='3086'>0.80157E+02</wgt>
<wgt id='3087'>0.81871E+02</wgt>
<wgt id='3088'>0.82779E+02</wgt>
<wgt id='3089'>0.83390E+02</wgt>
<wgt id='3090'>0.81414E+02</wgt>
<wgt id='3091'>0.80382E+02</wgt>
<wgt id='3092'>0.82082E+02</wgt>
<wgt id='3093'>0.81384E+02</wgt>
<wgt id='3094'>0.81056E+02</wgt>
<wgt id='3095'>0.81429E+02</wgt>
<wgt id='3096'>0.80242E+02</wgt>
<wgt id='3097'>0.80332E+02</wgt>
<wgt id='3098'>0.81826E+02</wgt>
<wgt id='3099'>0.79984E+02</wgt>
<wgt id='3100'>0.80291E+02</wgt>
<wgt id='3200'>0.78245E+02</wgt>
<wgt id='3201'>0.78827E+02</wgt>
<wgt id='3202'>0.77277E+02</wgt>
<wgt id='3203'>0.78267E+02</wgt>
<wgt id='3204'>0.77619E+02</wgt>
<wgt id='3205'>0.79013E+02</wgt>
<wgt id='3206'>0.78667E+02</wgt>
<wgt id='3207'>0.78983E+02</wgt>
<wgt id='3208'>0.78694E+02</wgt>
<wgt id='3209'>0.78059E+02</wgt>
<wgt id='3210'>0.78147E+02</wgt>
<wgt id='3211'>0.78808E+02</wgt>
<wgt id='3212'>0.77178E+02</wgt>
<wgt id='3213'>0.78111E+02</wgt>
<wgt id='3214'>0.77806E+02</wgt>
<wgt id='3215'>0.78283E+02</wgt>
<wgt id='3216'>0.79100E+02</wgt>
<wgt id='3217'>0.78558E+02</wgt>
<wgt id='3218'>0.78217E+02</wgt>
<wgt id='3219'>0.77997E+02</wgt>
<wgt id='3220'>0.77863E+02</wgt>
<wgt id='3221'>0.78992E+02</wgt>
<wgt id='3222'>0.79457E+02</wgt>
<wgt id='3223'>0.77851E+02</wgt>
<wgt id='3224'>0.78090E+02</wgt>
<wgt id='3225'>0.78818E+02</wgt>
<wgt id='3226'>0.78588E+02</wgt>
<wgt id='3227'>0.77751E+02</wgt>
<wgt id='3228'>0.77776E+02</wgt>
<wgt id='3229'>0.78562E+02</wgt>
<wgt id='3230'>0.78770E+02</wgt>
<wgt id='3231'>0.78517E+02</wgt>
<wgt id='3232'>0.78641E+02</wgt>
<wgt id='3233'>0.78940E+02</wgt>
<wgt id='3234'>0.78202E+02</wgt>
<wgt id='3235'>0.77552E+02</wgt>
<wgt id='3236'>0.77322E+02</wgt>
<wgt id='3237'>0.77885E+02</wgt>
<wgt id='3238'>0.78189E+02</wgt>
<wgt id='3239'>0.77810E+02</wgt>
<wgt id='3240'>0.77994E+02</wgt>
<wgt id='3241'>0.78921E+02</wgt>
<wgt id='3242'>0.77684E+02</wgt>
<wgt id='3243'>0.77251E+02</wgt>
<wgt id='3244'>0.78001E+02</wgt>
<wgt id='3245'>0.78536E+02</wgt>
<wgt id='3246'>0.77720E+02</wgt>
<wgt id='3247'>0.78398E+02</wgt>
<wgt id='3248'>0.78032E+02</wgt>
<wgt id='3249'>0.77880E+02</wgt>
<wgt id='3250'>0.78571E+02</wgt>
<wgt id='3251'>0.78243E+02</wgt>
<wgt id='3252'>0.78447E+02</wgt>
<wgt id='3253'>0.78061E+02</wgt>
<wgt id='3254'>0.77927E+02</wgt>
<wgt id='3255'>0.78161E+02</wgt>
<wgt id='3256'>0.77705E+02</wgt>
<wgt id='3257'>0.78007E+02</wgt>
<wgt id='3258'>0.78616E+02</wgt>
<wgt id='3259'>0.78645E+02</wgt>
<wgt id='3260'>0.78541E+02</wgt>
<wgt id='3261'>0.78998E+02</wgt>
<wgt id='3262'>0.77864E+02</wgt>
<wgt id='3263'>0.78984E+02</wgt>
<wgt id='3264'>0.78422E+02</wgt>
<wgt id='3265'>0.78295E+02</wgt>
<wgt id='3266'>0.77885E+02</wgt>
<wgt id='3267'>0.77963E+02</wgt>
<wgt id='3268'>0.78915E+02</wgt>
<wgt id='3269'>0.78396E+02</wgt>
<wgt id='3270'>0.78141E+02</wgt>
<wgt id='3271'>0.78323E+02</wgt>
<wgt id='3272'>0.78699E+02</wgt>
<wgt id='3273'>0.78122E+02</wgt>
<wgt id='3274'>0.78589E+02</wgt>
<wgt id='3275'>0.78499E+02</wgt>
<wgt id='3276'>0.77735E+02</wgt>
<wgt id='3277'>0.77448E+02</wgt>
<wgt id='3278'>0.78073E+02</wgt>
<wgt id='3279'>0.79018E+02</wgt>
<wgt id='3280'>0.78093E+02</wgt>
<wgt id='3281'>0.78525E+02</wgt>
<wgt id='3282'>0.78593E+02</wgt>
<wgt id='3283'>0.78588E+02</wgt>
<wgt id='3284'>0.78404E+02</wgt>
<wgt id='3285'>0.77530E+02</wgt>
<wgt id='3286'>0.78061E+02</wgt>
<wgt id='3287'>0.77816E+02</wgt>
<wgt id='3288'>0.78542E+02</wgt>
<wgt id='3289'>0.79229E+02</wgt>
<wgt id='3290'>0.79521E+02</wgt>
<wgt id='3291'>0.76845E+02</wgt>
<wgt id='3292'>0.77147E+02</wgt>
<wgt id='3293'>0.78093E+02</wgt>
<wgt id='3294'>0.76728E+02</wgt>
<wgt id='3295'>0.77699E+02</wgt>
<wgt id='3296'>0.79515E+02</wgt>
<wgt id='3297'>0.77866E+02</wgt>
<wgt id='3298'>0.78264E+02</wgt>
<wgt id='3299'>0.77768E+02</wgt>
<wgt id='3300'>0.78813E+02</wgt>
<wgt id='3301'>0.76934E+02</wgt>
<wgt id='3302'>0.79431E+02</wgt>
<wgt id='3400'>0.78644E+02</wgt>
<wgt id='3401'>0.78730E+02</wgt>
<wgt id='3402'>0.78239E+02</wgt>
<wgt id='3403'>0.79391E+02</wgt>
<wgt id='3404'>0.79692E+02</wgt>
<wgt id='3405'>0.79579E+02</wgt>
<wgt id='3406'>0.78388E+02</wgt>
<wgt id='3407'>0.77904E+02</wgt>
<wgt id='3408'>0.80028E+02</wgt>
<wgt id='3409'>0.79770E+02</wgt>
<wgt id='3410'>0.78973E+02</wgt>
<wgt id='3411'>0.78906E+02</wgt>
<wgt id='3412'>0.79151E+02</wgt>
<wgt id='3413'>0.78496E+02</wgt>
<wgt id='3414'>0.78672E+02</wgt>
<wgt id='3415'>0.78757E+02</wgt>
<wgt id='3416'>0.78352E+02</wgt>
<wgt id='3417'>0.78409E+02</wgt>
<wgt id='3418'>0.78207E+02</wgt>
<wgt id='3419'>0.78122E+02</wgt>
<wgt id='3420'>0.79141E+02</wgt>
<wgt id='3421'>0.79285E+02</wgt>
<wgt id='3422'>0.79023E+02</wgt>
<wgt id='3423'>0.79362E+02</wgt>
<wgt id='3424'>0.78919E+02</wgt>
<wgt id='3425'>0.78730E+02</wgt>
<wgt id='3426'>0.78775E+02</wgt>
<wgt id='3427'>0.78855E+02</wgt>
<wgt id='3428'>0.79249E+02</wgt>
<wgt id='3429'>0.78096E+02</wgt>
<wgt id='3430'>0.78842E+02</wgt>
<wgt id='3431'>0.78446E+02</wgt>
<wgt id='3432'>0.78037E+02</wgt>
<wgt id='3433'>0.77395E+02</wgt>
<wgt id='3434'>0.78721E+02</wgt>
<wgt id='3435'>0.78958E+02</wgt>
<wgt id='3436'>0.78681E+02</wgt>
<wgt id='3437'>0.78269E+02</wgt>
<wgt id='3438'>0.77919E+02</wgt>
<wgt id='3439'>0.79347E+02</wgt>
<wgt id='3440'>0.78822E+02</wgt>
<wgt id='3441'>0.78700E+02</wgt>
<wgt id='3442'>0.77447E+02</wgt>
<wgt id='3443'>0.78450E+02</wgt>
<wgt id='3444'>0.78692E+02</wgt>
<wgt id='3445'>0.78232E+02</wgt>
<wgt id='3446'>0.79613E+02</wgt>
<wgt id='3447'>0.79918E+02</wgt>
<wgt id='3448'>0.79073E+02</wgt>
<wgt id='3449'>0.79509E+02</wgt>
<wgt id='3450'>0.78776E+02</wgt>
<wgt id='3451'>0.79299E+02</wgt>
<wgt id='3452'>0.78183E+02</wgt>
<wgt id='3453'>0.77898E+02</wgt>
<wgt id='3454'>0.77773E+02</wgt>
<wgt id='3455'>0.79624E+02</wgt>
<wgt id='3456'>0.78944E+02</wgt>
<wgt id='3457'>0.79896E+02</wgt>
<wgt id='3458'>0.78965E+02</wgt>
<wgt id='3459'>0.78494E+02</wgt>
<wgt id='3460'>0.78510E+02</wgt>
<wgt id='3461'>0.78241E+02</wgt>
<wgt id='3462'>0.78300E+02</wgt>
<wgt id='3463'>0.78025E+02</wgt>
<wgt id='3464'>0.78960E+02</wgt>
<wgt id='3465'>0.78516E+02</wgt>
<wgt id='3466'>0.79125E+02</wgt>
<wgt id='3467'>0.78331E+02</wgt>
<wgt id='3468'>0.78137E+02</wgt>
<wgt id='3469'>0.78870E+02</wgt>
<wgt id='3470'>0.78574E+02</wgt>
<wgt id='3471'>0.78450E+02</wgt>
<wgt id='3472'>0.78021E+02</wgt>
<wgt id='3473'>0.78859E+02</wgt>
<wgt id='3474'>0.78736E+02</wgt>
<wgt id='3475'>0.78489E+02</wgt>
<wgt id='3476'>0.78590E+02</wgt>
<wgt id='3477'>0.78109E+02</wgt>
<wgt id='3478'>0.79220E+02</wgt>
<wgt id='3479'>0.79175E+02</wgt>
<wgt id='3480'>0.77884E+02</wgt>
<wgt id='3481'>0.78486E+02</wgt>
<wgt id='3482'>0.78552E+02</wgt>
<wgt id='3483'>0.77349E+02</wgt>
<wgt id='3484'>0.78746E+02</wgt>
<wgt id='3485'>0.78268E+02</wgt>
<wgt id='3486'>0.77659E+02</wgt>
<wgt id='3487'>0.79159E+02</wgt>
<wgt id='3488'>0.79183E+02</wgt>
<wgt id='3489'>0.77984E+02</wgt>
<wgt id='3490'>0.79315E+02</wgt>
<wgt id='3491'>0.78208E+02</wgt>
<wgt id='3492'>0.79035E+02</wgt>
<wgt id='3493'>0.77774E+02</wgt>
<wgt id='3494'>0.76766E+02</wgt>
<wgt id='3495'>0.78837E+02</wgt>
<wgt id='3496'>0.77663E+02</wgt>
<wgt id='3497'>0.78159E+02</wgt>
<wgt id='3498'>0.78479E+02</wgt>
<wgt id='3499'>0.78724E+02</wgt>
<wgt id='3500'>0.78862E+02</wgt>
</rwgt>
</event>
<event>
     13 322200  8.11039E+01  5.72524E+01 -1.00000E+00  1.33887E-01
       1    -1     0     0   502     0  0.000000000E+00  0.000000000E+00  4.619124513E+02  4.619124513E+02  0.000000000E+00  0.00000E+00  9.000E+00
      21    -1     0     0   512   513  0.000000000E+00  0.000000000E+00 -2.398683626E+02  2.398683626E+02  0.000000000E+00  0.00000E+00  9.000E+00
       6     2     1     2   502     0 -6.979920620E+01  8.023278393E+01 -8.022227434E+01  2.191168486E+02  1.739751454E+02  0.00000E+00  9.000E+00
      -6     2     1     2     0   513  9.019798389E+01 -2.673770228E+01  2.307312773E+01  1.976609115E+02  1.722988267E+02  0.00000E+00  9.000E+00
       1     1     1     2   512     0 -2.039877769E+01 -5.349508165E+01  2.791932353E+02  2.850030538E+02  2.100000000E-01  0.00000E+00  9.000E+00
      24     2     3     3     0     0 -9.961497524E+01  1.012389083E+02 -5.867844685E+01  1.764556549E+02  8.672357341E+01  0.00000E+00  9.000E+00
       5     1     3     3   502     0  2.981576904E+01 -2.100612433E+01 -2.154382749E+01  4.266119367E+01  5.060000000E+00  0.00000E+00 -1.000E+00
     -24     2     4     4     0     0  1.263358754E+02  1.250910453E+01  1.768150128E+01  1.438006081E+02  6.518242309E+01  0.00000E+00  9.000E+00
      -5     1     4     4     0   513 -3.613789152E+01 -3.924680681E+01  5.391626448E+00  5.386030342E+01  5.060000000E+00  0.00000E+00  1.000E+00
     -13     1     6     6     0     0  9.312415625E+00  2.275878961E+01 -3.066947052E+01  3.931044624E+01  1.057000000E-01  0.00000E+00  1.000E+00
      14     1     6     6     0     0 -1.089273909E+02  7.848011865E+01 -2.800897633E+01  1.371452087E+02  0.000000000E+00  0.00000E+00 -1.000E+00
      15     1     8     8     0     0  6.990420287E+01 -1.918544705E+00  4.097335446E+01  8.106942640E+01  1.777000000E+00  0.00000E+00 -1.000E+00
     -16     1     8     8     0     0  5.643167255E+01  1.442764923E+01 -2.329185318E+01  6.273118167E+01  0.000000000E+00  0.00000E+00  1.000E+00
#rwgt            1           1   988.79705531540924               10         403           0
<rwgt>
<wgt id='1001'>0.81104E+02</wgt>
<wgt id='1002'>0.76701E+02</wgt>
<wgt id='1003'>0.87940E+02</wgt>
<wgt id='1004'>0.73423E+02</wgt>
<wgt id='1005'>0.69560E+02</wgt>
<wgt id='1006'>0.79123E+02</wgt>
<wgt id='1007'>0.89055E+02</wgt>
<wgt id='1008'>0.84005E+02</wgt>
<wgt id='1009'>0.97413E+02</wgt>
<wgt id='2000'>0.81104E+02</wgt>
<wgt id='2001'>0.81164E+02</wgt>
<wgt id='2002'>0.80927E+02</wgt>
<wgt id='2003'>0.81019E+02</wgt>
<wgt id='2004'>0.81250E+02</wgt>
<wgt id='2005'>0.81158E+02</wgt>
<wgt id='2006'>0.81283E+02</wgt>
<wgt id='2007'>0.81241E+02</wgt>
<wgt id='2008'>0.81391E+02</wgt>
<wgt id='2009'>0.81053E+02</wgt>
<wgt id='2010'>0.81064E+02</wgt>
<wgt id='2011'>0.80845E+02</wgt>
<wgt id='2012'>0.81287E+02</wgt>
<wgt id='2013'>0.81251E+02</wgt>
<wgt id='2014'>0.81329E+02</wgt>
<wgt id='2015'>0.81230E+02</wgt>
<wgt id='2016'>0.81184E+02</wgt>
<wgt id='2017'>0.81118E+02</wgt>
<wgt id='2018'>0.81017E+02</wgt>
<wgt id='2019'>0.81286E+02</wgt>
<wgt id='2020'>0.80919E+02</wgt>
<wgt id='2021'>0.81099E+02</wgt>
<wgt id='2022'>0.80935E+02</wgt>
<wgt id='2023'>0.81201E+02</wgt>
<wgt id='2024'>0.80999E+02</wgt>
<wgt id='2025'>0.81111E+02</wgt>
<wgt id='2026'>0.80999E+02</wgt>
<wgt id='2027'>0.80947E+02</wgt>
<wgt id='2028'>0.81228E+02</wgt>
<wgt id='2029'>0.80905E+02</wgt>
<wgt id='2030'>0.81136E+02</wgt>
<wgt id='2031'>0.80862E+02</wgt>
<wgt id='2032'>0.81095E+02</wgt>
<wgt id='2033'>0.81018E+02</wgt>
<wgt id='2034'>0.80981E+02</wgt>
<wgt id='2035'>0.81129E+02</wgt>
<wgt id='2036'>0.81220E+02</wgt>
<wgt id='2037'>0.81087E+02</wgt>
<wgt id='2038'>0.81045E+02</wgt>
<wgt id='2039'>0.81086E+02</wgt>
<wgt id='2040'>0.81069E+02</wgt>
<wgt id='2041'>0.81099E+02</wgt>
<wgt id='2042'>0.81158E+02</wgt>
<wgt id='2043'>0.81066E+02</wgt>
<wgt id='2044'>0.81164E+02</wgt>
<wgt id='2045'>0.81097E+02</wgt>
<wgt id='2046'>0.81107E+02</wgt>
<wgt id='2047'>0.81090E+02</wgt>
<wgt id='2048'>0.81069E+02</wgt>
<wgt id='2049'>0.81050E+02</wgt>
<wgt id='2050'>0.81069E+02</wgt>
<wgt id='2051'>0.81095E+02</wgt>
<wgt id='2052'>0.81167E+02</wgt>
<wgt id='2053'>0.81087E+02</wgt>
<wgt id='2054'>0.81092E+02</wgt>
<wgt id='2055'>0.81122E+02</wgt>
<wgt id='2056'>0.81067E+02</wgt>
<wgt id='2057'>0.81126E+02</wgt>
<wgt id='2058'>0.81124E+02</wgt>
<wgt id='2059'>0.81114E+02</wgt>
<wgt id='2060'>0.81106E+02</wgt>
<wgt id='2061'>0.81085E+02</wgt>
<wgt id='2062'>0.81161E+02</wgt>
<wgt id='2063'>0.81114E+02</wgt>
<wgt id='2064'>0.81127E+02</wgt>
<wgt id='2065'>0.81171E+02</wgt>
<wgt id='2066'>0.81107E+02</wgt>
<wgt id='2067'>0.81120E+02</wgt>
<wgt id='2068'>0.81125E+02</wgt>
<wgt id='2069'>0.81107E+02</wgt>
<wgt id='2070'>0.81106E+02</wgt>
<wgt id='2071'>0.81102E+02</wgt>
<wgt id='2072'>0.81106E+02</wgt>
<wgt id='2073'>0.81128E+02</wgt>
<wgt id='2074'>0.81077E+02</wgt>
<wgt id='2075'>0.81095E+02</wgt>
<wgt id='2076'>0.81095E+02</wgt>
<wgt id='2077'>0.81151E+02</wgt>
<wgt id='2078'>0.81103E+02</wgt>
<wgt id='2079'>0.81085E+02</wgt>
<wgt id='2080'>0.81104E+02</wgt>
<wgt id='2081'>0.81087E+02</wgt>
<wgt id='2082'>0.81109E+02</wgt>
<wgt id='2083'>0.81128E+02</wgt>
<wgt id='2084'>0.81109E+02</wgt>
<wgt id='2085'>0.81103E+02</wgt>
<wgt id='2086'>0.81095E+02</wgt>
<wgt id='2087'>0.81114E+02</wgt>
<wgt id='2088'>0.81097E+02</wgt>
<wgt id='2089'>0.81095E+02</wgt>
<wgt id='2090'>0.81118E+02</wgt>
<wgt id='2091'>0.81105E+02</wgt>
<wgt id='2092'>0.81116E+02</wgt>
<wgt id='2093'>0.81094E+02</wgt>
<wgt id='2094'>0.81108E+02</wgt>
<wgt id='2095'>0.81116E+02</wgt>
<wgt id='2096'>0.81095E+02</wgt>
<wgt id='2097'>0.81114E+02</wgt>
<wgt id='2098'>0.81097E+02</wgt>
<wgt id='2099'>0.81114E+02</wgt>
<wgt id='2100'>0.81104E+02</wgt>
<wgt id='2101'>0.78945E+02</wgt>
<wgt id='2102'>0.83359E+02</wgt>
<wgt id='2200'>0.81172E+02</wgt>
<wgt id='2201'>0.70854E+02</wgt>
<wgt id='2202'>0.72847E+02</wgt>
<wgt id='2203'>0.75102E+02</wgt>
<wgt id='2204'>0.77138E+02</wgt>
<wgt id='2205'>0.80196E+02</wgt>
<wgt id='2206'>0.82408E+02</wgt>
<wgt id='2207'>0.85243E+02</wgt>
<wgt id='2208'>0.87433E+02</wgt>
<wgt id='2300'>0.84480E+02</wgt>
<wgt id='2301'>0.84581E+02</wgt>
<wgt id='2302'>0.84435E+02</wgt>
<wgt id='2303'>0.84527E+02</wgt>
<wgt id='2304'>0.84645E+02</wgt>
<wgt id='2305'>0.84641E+02</wgt>
<wgt id='2306'>0.84461E+02</wgt>
<wgt id='2307'>0.84682E+02</wgt>
<wgt id='2308'>0.84425E+02</wgt>
<wgt id='2309'>0.84713E+02</wgt>
<wgt id='2310'>0.84335E+02</wgt>
<wgt id='2311'>0.84349E+02</wgt>
<wgt id='2312'>0.84615E+02</wgt>
<wgt id='2313'>0.84489E+02</wgt>
<wgt id='2314'>0.84615E+02</wgt>
<wgt id='2315'>0.84348E+02</wgt>
<wgt id='2316'>0.84537E+02</wgt>
<wgt id='2317'>0.84605E+02</wgt>
<wgt id='2318'>0.84654E+02</wgt>
<wgt id='2319'>0.84279E+02</wgt>
<wgt id='2320'>0.84299E+02</wgt>
<wgt id='2321'>0.84269E+02</wgt>
<wgt id='2322'>0.84459E+02</wgt>
<wgt id='2323'>0.84327E+02</wgt>
<wgt id='2324'>0.84270E+02</wgt>
<wgt id='2325'>0.84490E+02</wgt>
<wgt id='2326'>0.84573E+02</wgt>
<wgt id='2327'>0.84513E+02</wgt>
<wgt id='2328'>0.84254E+02</wgt>
<wgt id='2329'>0.84369E+02</wgt>
<wgt id='2330'>0.84707E+02</wgt>
<wgt id='2331'>0.84586E+02</wgt>
<wgt id='2332'>0.84494E+02</wgt>
<wgt id='2333'>0.84519E+02</wgt>
<wgt id='2334'>0.84502E+02</wgt>
<wgt id='2335'>0.84526E+02</wgt>
<wgt id='2336'>0.84530E+02</wgt>
<wgt id='2337'>0.84515E+02</wgt>
<wgt id='2338'>0.84486E+02</wgt>
<wgt id='2339'>0.84552E+02</wgt>
<wgt id='2340'>0.84513E+02</wgt>
<wgt id='2341'>0.84478E+02</wgt>
<wgt id='2342'>0.84343E+02</wgt>
<wgt id='2343'>0.84342E+02</wgt>
<wgt id='2344'>0.84558E+02</wgt>
<wgt id='2345'>0.84567E+02</wgt>
<wgt id='2346'>0.84546E+02</wgt>
<wgt id='2347'>0.84444E+02</wgt>
<wgt id='2348'>0.84559E+02</wgt>
<wgt id='2349'>0.84446E+02</wgt>
<wgt id='2350'>0.84444E+02</wgt>
<wgt id='2351'>0.84621E+02</wgt>
<wgt id='2352'>0.84457E+02</wgt>
<wgt id='2353'>0.84448E+02</wgt>
<wgt id='2354'>0.84464E+02</wgt>
<wgt id='2355'>0.84497E+02</wgt>
<wgt id='2356'>0.84501E+02</wgt>
<wgt id='2357'>0.84449E+02</wgt>
<wgt id='2358'>0.84456E+02</wgt>
<wgt id='2359'>0.84475E+02</wgt>
<wgt id='2360'>0.84493E+02</wgt>
<wgt id='2361'>0.84503E+02</wgt>
<wgt id='2362'>0.84487E+02</wgt>
<wgt id='2363'>0.84496E+02</wgt>
<wgt id='2364'>0.84466E+02</wgt>
<wgt id='2365'>0.84485E+02</wgt>
<wgt id='2366'>0.84489E+02</wgt>
<wgt id='2367'>0.84441E+02</wgt>
<wgt id='2368'>0.84480E+02</wgt>
<wgt id='2369'>0.84448E+02</wgt>
<wgt id='2370'>0.84457E+02</wgt>
<wgt id='2371'>0.84476E+02</wgt>
<wgt id='2372'>0.84496E+02</wgt>
<wgt id='2373'>0.84473E+02</wgt>
<wgt id='2374'>0.84520E+02</wgt>
<wgt id='2375'>0.84492E+02</wgt>
<wgt id='2376'>0.84486E+02</wgt>
<wgt id='2377'>0.84479E+02</wgt>
<wgt id='2378'>0.84508E+02</wgt>
<wgt id='2379'>0.84465E+02</wgt>
<wgt id='2380'>0.84465E+02</wgt>
<wgt id='2381'>0.84479E+02</wgt>
<wgt id='2382'>0.84465E+02</wgt>
<wgt id='2383'>0.84485E+02</wgt>
<wgt id='2384'>0.84474E+02</wgt>
<wgt id='2385'>0.84485E+02</wgt>
<wgt id='2386'>0.84477E+02</wgt>
<wgt id='2387'>0.84473E+02</wgt>
<wgt id='2388'>0.84474E+02</wgt>
<wgt id='2389'>0.84485E+02</wgt>
<wgt id='2390'>0.84485E+02</wgt>
<wgt id='2391'>0.84481E+02</wgt>
<wgt id='2392'>0.84477E+02</wgt>
<wgt id='2393'>0.84476E+02</wgt>
<wgt id='2394'>0.84494E+02</wgt>
<wgt id='2395'>0.84486E+02</wgt>
<wgt id='2396'>0.84471E+02</wgt>
<wgt id='2397'>0.84462E+02</wgt>
<wgt id='2398'>0.84476E+02</wgt>
<wgt id='2399'>0.84498E+02</wgt>
<wgt id='2400'>0.84482E+02</wgt>
<wgt id='2401'>0.82268E+02</wgt>
<wgt id='2402'>0.86809E+02</wgt>
<wgt id='2500'>0.81304E+02</wgt>
<wgt id='2501'>0.85591E+02</wgt>
<wgt id='2600'>0.78937E+02</wgt>
<wgt id='2601'>0.78923E+02</wgt>
<wgt id='2602'>0.78831E+02</wgt>
<wgt id='2603'>0.78910E+02</wgt>
<wgt id='2604'>0.78967E+02</wgt>
<wgt id='2605'>0.78828E+02</wgt>
<wgt id='2606'>0.78778E+02</wgt>
<wgt id='2607'>0.79045E+02</wgt>
<wgt id='2608'>0.78867E+02</wgt>
<wgt id='2609'>0.78880E+02</wgt>
<wgt id='2610'>0.78902E+02</wgt>
<wgt id='2611'>0.78872E+02</wgt>
<wgt id='2612'>0.79212E+02</wgt>
<wgt id='2613'>0.78919E+02</wgt>
<wgt id='2614'>0.78929E+02</wgt>
<wgt id='2615'>0.78835E+02</wgt>
<wgt id='2616'>0.78922E+02</wgt>
<wgt id='2617'>0.78827E+02</wgt>
<wgt id='2618'>0.78792E+02</wgt>
<wgt id='2619'>0.78975E+02</wgt>
<wgt id='2620'>0.78952E+02</wgt>
<wgt id='2621'>0.78931E+02</wgt>
<wgt id='2622'>0.79005E+02</wgt>
<wgt id='2623'>0.78933E+02</wgt>
<wgt id='2624'>0.78939E+02</wgt>
<wgt id='2625'>0.78912E+02</wgt>
<wgt id='2626'>0.78933E+02</wgt>
<wgt id='2627'>0.78928E+02</wgt>
<wgt id='2628'>0.78944E+02</wgt>
<wgt id='2629'>0.78947E+02</wgt>
<wgt id='2630'>0.78944E+02</wgt>
<wgt id='2631'>0.78914E+02</wgt>
<wgt id='2632'>0.78922E+02</wgt>
<wgt id='2633'>0.78924E+02</wgt>
<wgt id='2634'>0.78916E+02</wgt>
<wgt id='2635'>0.78917E+02</wgt>
<wgt id='2636'>0.78939E+02</wgt>
<wgt id='2637'>0.78939E+02</wgt>
<wgt id='2638'>0.78928E+02</wgt>
<wgt id='2639'>0.78942E+02</wgt>
<wgt id='2640'>0.78927E+02</wgt>
<wgt id='2641'>0.78929E+02</wgt>
<wgt id='2642'>0.78936E+02</wgt>
<wgt id='2643'>0.78923E+02</wgt>
<wgt id='2644'>0.78942E+02</wgt>
<wgt id='2645'>0.78931E+02</wgt>
<wgt id='2646'>0.78945E+02</wgt>
<wgt id='2647'>0.78933E+02</wgt>
<wgt id='2648'>0.78933E+02</wgt>
<wgt id='2649'>0.78943E+02</wgt>
<wgt id='2650'>0.78941E+02</wgt>
<wgt id='2651'>0.77601E+02</wgt>
<wgt id='2652'>0.80175E+02</wgt>
<wgt id='2700'>0.76327E+02</wgt>
<wgt id='2701'>0.77601E+02</wgt>
<wgt id='2702'>0.78313E+02</wgt>
<wgt id='2703'>0.79481E+02</wgt>
<wgt id='2704'>0.80175E+02</wgt>
<wgt id='2705'>0.81397E+02</wgt>
<wgt id='2800'>0.80355E+02</wgt>
<wgt id='4000'>0.80371E+02</wgt>
<wgt id='4001'>0.80733E+02</wgt>
<wgt id='4002'>0.80303E+02</wgt>
<wgt id='4003'>0.80816E+02</wgt>
<wgt id='4004'>0.79990E+02</wgt>
<wgt id='4005'>0.80125E+02</wgt>
<wgt id='4006'>0.80644E+02</wgt>
<wgt id='4007'>0.81117E+02</wgt>
<wgt id='4008'>0.79628E+02</wgt>
<wgt id='4009'>0.80762E+02</wgt>
<wgt id='4010'>0.80016E+02</wgt>
<wgt id='4011'>0.80693E+02</wgt>
<wgt id='4012'>0.80118E+02</wgt>
<wgt id='4013'>0.81013E+02</wgt>
<wgt id='4014'>0.79824E+02</wgt>
<wgt id='4015'>0.80166E+02</wgt>
<wgt id='4016'>0.80692E+02</wgt>
<wgt id='4017'>0.80330E+02</wgt>
<wgt id='4018'>0.80464E+02</wgt>
<wgt id='4019'>0.80812E+02</wgt>
<wgt id='4020'>0.79711E+02</wgt>
<wgt id='4021'>0.80457E+02</wgt>
<wgt id='4022'>0.80200E+02</wgt>
<wgt id='4023'>0.80227E+02</wgt>
<wgt id='4024'>0.80637E+02</wgt>
<wgt id='4025'>0.80547E+02</wgt>
<wgt id='4026'>0.79959E+02</wgt>
<wgt id='4027'>0.80280E+02</wgt>
<wgt id='4028'>0.80515E+02</wgt>
<wgt id='4029'>0.79706E+02</wgt>
<wgt id='4030'>0.80396E+02</wgt>
<wgt id='4031'>0.80266E+02</wgt>
<wgt id='4032'>0.80481E+02</wgt>
<wgt id='4033'>0.80374E+02</wgt>
<wgt id='4034'>0.80176E+02</wgt>
<wgt id='4035'>0.81327E+02</wgt>
<wgt id='4036'>0.79669E+02</wgt>
<wgt id='4037'>0.81559E+02</wgt>
<wgt id='4038'>0.79423E+02</wgt>
<wgt id='4039'>0.81470E+02</wgt>
<wgt id='4040'>0.79229E+02</wgt>
<wgt id='4041'>0.80243E+02</wgt>
<wgt id='4042'>0.80386E+02</wgt>
<wgt id='4043'>0.79439E+02</wgt>
<wgt id='4044'>0.80594E+02</wgt>
<wgt id='4045'>0.81725E+02</wgt>
<wgt id='4046'>0.79781E+02</wgt>
<wgt id='4047'>0.79512E+02</wgt>
<wgt id='4048'>0.80765E+02</wgt>
<wgt id='4049'>0.80235E+02</wgt>
<wgt id='4050'>0.80473E+02</wgt>
<wgt id='4051'>0.81179E+02</wgt>
<wgt id='4052'>0.79609E+02</wgt>
<wgt id='4053'>0.81032E+02</wgt>
<wgt id='4054'>0.79448E+02</wgt>
<wgt id='4055'>0.80736E+02</wgt>
<wgt id='4056'>0.79959E+02</wgt>
<wgt id='4057'>0.79615E+02</wgt>
<wgt id='4058'>0.80864E+02</wgt>
<wgt id='4100'>0.80899E+02</wgt>
<wgt id='4101'>0.80649E+02</wgt>
<wgt id='4102'>0.80067E+02</wgt>
<wgt id='4103'>0.79745E+02</wgt>
<wgt id='4200'>0.77489E+02</wgt>
<wgt id='4201'>0.77614E+02</wgt>
<wgt id='4202'>0.77625E+02</wgt>
<wgt id='4203'>0.76952E+02</wgt>
<wgt id='4204'>0.77972E+02</wgt>
<wgt id='4205'>0.77422E+02</wgt>
<wgt id='4206'>0.77676E+02</wgt>
<wgt id='4207'>0.77342E+02</wgt>
<wgt id='4208'>0.77583E+02</wgt>
<wgt id='4209'>0.77725E+02</wgt>
<wgt id='4210'>0.77468E+02</wgt>
<wgt id='4211'>0.78297E+02</wgt>
<wgt id='4212'>0.76882E+02</wgt>
<wgt id='4213'>0.77625E+02</wgt>
<wgt id='4214'>0.77296E+02</wgt>
<wgt id='4215'>0.77631E+02</wgt>
<wgt id='4216'>0.77213E+02</wgt>
<wgt id='4217'>0.77234E+02</wgt>
<wgt id='4218'>0.77719E+02</wgt>
<wgt id='4219'>0.76500E+02</wgt>
<wgt id='4220'>0.78417E+02</wgt>
<wgt id='4221'>0.77069E+02</wgt>
<wgt id='4222'>0.78106E+02</wgt>
<wgt id='4223'>0.77822E+02</wgt>
<wgt id='4224'>0.76849E+02</wgt>
<wgt id='4225'>0.76313E+02</wgt>
<wgt id='4226'>0.78645E+02</wgt>
<wgt id='4227'>0.78015E+02</wgt>
<wgt id='4228'>0.77052E+02</wgt>
<wgt id='4229'>0.76821E+02</wgt>
<wgt id='4230'>0.77928E+02</wgt>
<wgt id='4231'>0.77547E+02</wgt>
<wgt id='4232'>0.77348E+02</wgt>
<wgt id='4233'>0.77752E+02</wgt>
<wgt id='4234'>0.77047E+02</wgt>
<wgt id='4235'>0.77813E+02</wgt>
<wgt id='4236'>0.77269E+02</wgt>
<wgt id='4237'>0.77583E+02</wgt>
<wgt id='4238'>0.77122E+02</wgt>
<wgt id='4239'>0.77958E+02</wgt>
<wgt id='4240'>0.76317E+02</wgt>
<wgt id='4241'>0.77199E+02</wgt>
<wgt id='4242'>0.77788E+02</wgt>
<wgt id='4243'>0.77459E+02</wgt>
<wgt id='4244'>0.77787E+02</wgt>
<wgt id='4245'>0.76831E+02</wgt>
<wgt id='4246'>0.78066E+02</wgt>
<wgt id='4247'>0.77270E+02</wgt>
<wgt id='4248'>0.77572E+02</wgt>
<wgt id='4249'>0.78564E+02</wgt>
<wgt id='4250'>0.76259E+02</wgt>
<wgt id='4251'>0.76996E+02</wgt>
<wgt id='4252'>0.77745E+02</wgt>
<wgt id='4253'>0.77275E+02</wgt>
<wgt id='4254'>0.77574E+02</wgt>
<wgt id='4255'>0.77694E+02</wgt>
<wgt id='4256'>0.77314E+02</wgt>
<wgt id='4257'>0.76148E+02</wgt>
<wgt id='4258'>0.77873E+02</wgt>
<wgt id='4300'>0.79686E+02</wgt>
<wgt id='4301'>0.78761E+02</wgt>
<wgt id='5000'>0.80057E+02</wgt>
<wgt id='5001'>0.80085E+02</wgt>
<wgt id='5002'>0.80022E+02</wgt>
<wgt id='5003'>0.80073E+02</wgt>
<wgt id='5004'>0.80043E+02</wgt>
<wgt id='5005'>0.80059E+02</wgt>
<wgt id='5006'>0.80054E+02</wgt>
<wgt id='5007'>0.80083E+02</wgt>
<wgt id='5008'>0.80037E+02</wgt>
<wgt id='5009'>0.80160E+02</wgt>
<wgt id='5010'>0.79951E+02</wgt>
<wgt id='5011'>0.80164E+02</wgt>
<wgt id='5012'>0.79955E+02</wgt>
<wgt id='5013'>0.80203E+02</wgt>
<wgt id='5014'>0.79954E+02</wgt>
<wgt id='5015'>0.79733E+02</wgt>
<wgt id='5016'>0.79733E+02</wgt>
<wgt id='5017'>0.80428E+02</wgt>
<wgt id='5018'>0.79807E+02</wgt>
<wgt id='5019'>0.80279E+02</wgt>
<wgt id='5020'>0.79753E+02</wgt>
<wgt id='5021'>0.80122E+02</wgt>
<wgt id='5022'>0.79957E+02</wgt>
<wgt id='5023'>0.79993E+02</wgt>
<wgt id='5024'>0.80211E+02</wgt>
<wgt id='5025'>0.79852E+02</wgt>
<wgt id='5026'>0.80286E+02</wgt>
<wgt id='5027'>0.80092E+02</wgt>
<wgt id='5028'>0.79965E+02</wgt>
<wgt id='5029'>0.80680E+02</wgt>
<wgt id='5030'>0.79706E+02</wgt>
<wgt id='5031'>0.79744E+02</wgt>
<wgt id='5032'>0.81017E+02</wgt>
<wgt id='5033'>0.80060E+02</wgt>
<wgt id='5034'>0.80055E+02</wgt>
<wgt id='5035'>0.80060E+02</wgt>
<wgt id='5036'>0.80055E+02</wgt>
<wgt id='5037'>0.79949E+02</wgt>
<wgt id='5038'>0.80119E+02</wgt>
<wgt id='5039'>0.80235E+02</wgt>
<wgt id='5040'>0.79612E+02</wgt>
<wgt id='5041'>0.80243E+02</wgt>
<wgt id='5042'>0.79868E+02</wgt>
<wgt id='5043'>0.80168E+02</wgt>
<wgt id='5044'>0.79987E+02</wgt>
<wgt id='5045'>0.79922E+02</wgt>
<wgt id='5046'>0.80322E+02</wgt>
<wgt id='5047'>0.80096E+02</wgt>
<wgt id='5048'>0.79885E+02</wgt>
<wgt id='5049'>0.80029E+02</wgt>
<wgt id='5050'>0.80119E+02</wgt>
<wgt id='5051'>0.80174E+02</wgt>
<wgt id='5052'>0.79960E+02</wgt>
<wgt id='5053'>0.79990E+02</wgt>
<wgt id='5054'>0.80200E+02</wgt>
<wgt id='5055'>0.80095E+02</wgt>
<wgt id='5056'>0.80068E+02</wgt>
<wgt id='5057'>0.79852E+02</wgt>
<wgt id='5058'>0.80202E+02</wgt>
<wgt id='5059'>0.80027E+02</wgt>
<wgt id='5060'>0.80081E+02</wgt>
<wgt id='5061'>0.80271E+02</wgt>
<wgt id='5062'>0.80084E+02</wgt>
<wgt id='5063'>0.80281E+02</wgt>
<wgt id='5064'>0.80019E+02</wgt>
<wgt id='5100'>0.80057E+02</wgt>
<wgt id='5101'>0.80076E+02</wgt>
<wgt id='6000'>0.80046E+02</wgt>
<wgt id='6001'>0.80080E+02</wgt>
<wgt id='6002'>0.80063E+02</wgt>
<wgt id='6003'>0.79980E+02</wgt>
<wgt id='6004'>0.80018E+02</wgt>
<wgt id='6005'>0.79872E+02</wgt>
<wgt id='6006'>0.80221E+02</wgt>
<wgt id='6007'>0.79869E+02</wgt>
<wgt id='6008'>0.79603E+02</wgt>
<wgt id='6009'>0.80235E+02</wgt>
<wgt id='6010'>0.79192E+02</wgt>
<wgt id='6011'>0.80020E+02</wgt>
<wgt id='6012'>0.80291E+02</wgt>
<wgt id='6013'>0.79817E+02</wgt>
<wgt id='6014'>0.79940E+02</wgt>
<wgt id='6015'>0.79470E+02</wgt>
<wgt id='6016'>0.80107E+02</wgt>
<wgt id='6017'>0.80021E+02</wgt>
<wgt id='6018'>0.79893E+02</wgt>
<wgt id='6019'>0.80064E+02</wgt>
<wgt id='6020'>0.80217E+02</wgt>
<wgt id='6021'>0.80076E+02</wgt>
<wgt id='6022'>0.80019E+02</wgt>
<wgt id='6023'>0.80076E+02</wgt>
<wgt id='6024'>0.80120E+02</wgt>
<wgt id='6025'>0.80272E+02</wgt>
<wgt id='6026'>0.80068E+02</wgt>
<wgt id='6027'>0.80064E+02</wgt>
<wgt id='6028'>0.79908E+02</wgt>
<wgt id='6029'>0.79925E+02</wgt>
<wgt id='6030'>0.80476E+02</wgt>
<wgt id='6031'>0.79875E+02</wgt>
<wgt id='6032'>0.80058E+02</wgt>
<wgt id='6033'>0.79926E+02</wgt>
<wgt id='6034'>0.80282E+02</wgt>
<wgt id='6035'>0.80090E+02</wgt>
<wgt id='6036'>0.80471E+02</wgt>
<wgt id='6037'>0.80061E+02</wgt>
<wgt id='6038'>0.80118E+02</wgt>
<wgt id='6039'>0.80199E+02</wgt>
<wgt id='6040'>0.80042E+02</wgt>
<wgt id='6041'>0.78942E+02</wgt>
<wgt id='6042'>0.80961E+02</wgt>
<wgt id='7000'>0.79259E+02</wgt>
<wgt id='7001'>0.78844E+02</wgt>
<wgt id='7002'>0.78987E+02</wgt>
<wgt id='7003'>0.78875E+02</wgt>
<wgt id='7004'>0.78956E+02</wgt>
<wgt id='7005'>0.78997E+02</wgt>
<wgt id='7006'>0.78835E+02</wgt>
<wgt id='7007'>0.79319E+02</wgt>
<wgt id='7008'>0.78524E+02</wgt>
<wgt id='7009'>0.78634E+02</wgt>
<wgt id='7010'>0.79208E+02</wgt>
<wgt id='7011'>0.79130E+02</wgt>
<wgt id='7012'>0.78703E+02</wgt>
<wgt id='7013'>0.78792E+02</wgt>
<wgt id='7014'>0.79031E+02</wgt>
<wgt id='7015'>0.78836E+02</wgt>
<wgt id='7016'>0.78784E+02</wgt>
<wgt id='7017'>0.78898E+02</wgt>
<wgt id='7018'>0.78936E+02</wgt>
<wgt id='7019'>0.78758E+02</wgt>
<wgt id='7020'>0.79080E+02</wgt>
<wgt id='7021'>0.79084E+02</wgt>
<wgt id='7022'>0.78747E+02</wgt>
<wgt id='7023'>0.78676E+02</wgt>
<wgt id='7024'>0.79184E+02</wgt>
<wgt id='7025'>0.78201E+02</wgt>
<wgt id='7026'>0.79612E+02</wgt>
<wgt id='7027'>0.78632E+02</wgt>
<wgt id='7028'>0.79226E+02</wgt>
<wgt id='8000'>0.79961E+02</wgt>
<wgt id='8001'>0.79952E+02</wgt>
<wgt id='8002'>0.79980E+02</wgt>
<wgt id='8003'>0.79963E+02</wgt>
<wgt id='8004'>0.79959E+02</wgt>
<wgt id='8005'>0.79855E+02</wgt>
<wgt id='8006'>0.80030E+02</wgt>
<wgt id='8007'>0.80110E+02</wgt>
<wgt id='8008'>0.80107E+02</wgt>
<wgt id='8009'>0.80223E+02</wgt>
<wgt id='8010'>0.79883E+02</wgt>
<wgt id='8011'>0.79968E+02</wgt>
<wgt id='8012'>0.79698E+02</wgt>
<wgt id='8013'>0.79819E+02</wgt>
<wgt id='8014'>0.80116E+02</wgt>
<wgt id='8015'>0.79916E+02</wgt>
<wgt id='8016'>0.80020E+02</wgt>
<wgt id='8017'>0.79983E+02</wgt>
<wgt id='8018'>0.80125E+02</wgt>
<wgt id='8019'>0.80010E+02</wgt>
<wgt id='8020'>0.79921E+02</wgt>
<wgt id='8021'>0.79898E+02</wgt>
<wgt id='8022'>0.79879E+02</wgt>
<wgt id='8023'>0.79896E+02</wgt>
<wgt id='8024'>0.79767E+02</wgt>
<wgt id='8025'>0.79928E+02</wgt>
<wgt id='8026'>0.80053E+02</wgt>
<wgt id='8027'>0.80004E+02</wgt>
<wgt id='8028'>0.80007E+02</wgt>
<wgt id='8029'>0.79897E+02</wgt>
<wgt id='3000'>0.81104E+02</wgt>
<wgt id='3001'>0.80845E+02</wgt>
<wgt id='3002'>0.80739E+02</wgt>
<wgt id='3003'>0.82986E+02</wgt>
<wgt id='3004'>0.81811E+02</wgt>
<wgt id='3005'>0.80931E+02</wgt>
<wgt id='3006'>0.82499E+02</wgt>
<wgt id='3007'>0.80397E+02</wgt>
<wgt id='3008'>0.80055E+02</wgt>
<wgt id='3009'>0.82017E+02</wgt>
<wgt id='3010'>0.82681E+02</wgt>
<wgt id='3011'>0.82165E+02</wgt>
<wgt id='3012'>0.81347E+02</wgt>
<wgt id='3013'>0.79949E+02</wgt>
<wgt id='3014'>0.80561E+02</wgt>
<wgt id='3015'>0.81341E+02</wgt>
<wgt id='3016'>0.82142E+02</wgt>
<wgt id='3017'>0.82368E+02</wgt>
<wgt id='3018'>0.80949E+02</wgt>
<wgt id='3019'>0.79783E+02</wgt>
<wgt id='3020'>0.80457E+02</wgt>
<wgt id='3021'>0.79475E+02</wgt>
<wgt id='3022'>0.79406E+02</wgt>
<wgt id='3023'>0.79827E+02</wgt>
<wgt id='3024'>0.79879E+02</wgt>
<wgt id='3025'>0.79954E+02</wgt>
<wgt id='3026'>0.80420E+02</wgt>
<wgt id='3027'>0.80292E+02</wgt>
<wgt id='3028'>0.80832E+02</wgt>
<wgt id='3029'>0.82175E+02</wgt>
<wgt id='3030'>0.82481E+02</wgt>
<wgt id='3031'>0.81758E+02</wgt>
<wgt id='3032'>0.81764E+02</wgt>
<wgt id='3033'>0.80539E+02</wgt>
<wgt id='3034'>0.81180E+02</wgt>
<wgt id='3035'>0.81547E+02</wgt>
<wgt id='3036'>0.80372E+02</wgt>
<wgt id='3037'>0.80781E+02</wgt>
<wgt id='3038'>0.81047E+02</wgt>
<wgt id='3039'>0.81263E+02</wgt>
<wgt id='3040'>0.80889E+02</wgt>
<wgt id='3041'>0.81405E+02</wgt>
<wgt id='3042'>0.81005E+02</wgt>
<wgt id='3043'>0.81351E+02</wgt>
<wgt id='3044'>0.81083E+02</wgt>
<wgt id='3045'>0.81301E+02</wgt>
<wgt id='3046'>0.81561E+02</wgt>
<wgt id='3047'>0.80417E+02</wgt>
<wgt id='3048'>0.79774E+02</wgt>
<wgt id='3049'>0.81454E+02</wgt>
<wgt id='3050'>0.81731E+02</wgt>
<wgt id='3051'>0.81279E+02</wgt>
<wgt id='3052'>0.79940E+02</wgt>
<wgt id='3053'>0.81162E+02</wgt>
<wgt id='3054'>0.81351E+02</wgt>
<wgt id='3055'>0.79975E+02</wgt>
<wgt id='3056'>0.80691E+02</wgt>
<wgt id='3057'>0.80347E+02</wgt>
<wgt id='3058'>0.80122E+02</wgt>
<wgt id='3059'>0.82154E+02</wgt>
<wgt id='3060'>0.81026E+02</wgt>
<wgt id='3061'>0.80864E+02</wgt>
<wgt id='3062'>0.80906E+02</wgt>
<wgt id='3063'>0.79351E+02</wgt>
<wgt id='3064'>0.81112E+02</wgt>
<wgt id='3065'>0.80226E+02</wgt>
<wgt id='3066'>0.81786E+02</wgt>
<wgt id='3067'>0.80006E+02</wgt>
<wgt id='3068'>0.81613E+02</wgt>
<wgt id='3069'>0.80711E+02</wgt>
<wgt id='3070'>0.80279E+02</wgt>
<wgt id='3071'>0.82167E+02</wgt>
<wgt id='3072'>0.81323E+02</wgt>
<wgt id='3073'>0.81848E+02</wgt>
<wgt id='3074'>0.81860E+02</wgt>
<wgt id='3075'>0.82228E+02</wgt>
<wgt id='3076'>0.82787E+02</wgt>
<wgt id='3077'>0.80416E+02</wgt>
<wgt id='3078'>0.81583E+02</wgt>
<wgt id='3079'>0.80903E+02</wgt>
<wgt id='3080'>0.81495E+02</wgt>
<wgt id='3081'>0.80074E+02</wgt>
<wgt id='3082'>0.82142E+02</wgt>
<wgt id='3083'>0.81245E+02</wgt>
<wgt id='3084'>0.80893E+02</wgt>
<wgt id='3085'>0.83113E+02</wgt>
<wgt id='3086'>0.80333E+02</wgt>
<wgt id='3087'>0.81579E+02</wgt>
<wgt id='3088'>0.82357E+02</wgt>
<wgt id='3089'>0.83259E+02</wgt>
<wgt id='3090'>0.81186E+02</wgt>
<wgt id='3091'>0.80631E+02</wgt>
<wgt id='3092'>0.81956E+02</wgt>
<wgt id='3093'>0.81527E+02</wgt>
<wgt id='3094'>0.81181E+02</wgt>
<wgt id='3095'>0.80676E+02</wgt>
<wgt id='3096'>0.80591E+02</wgt>
<wgt id='3097'>0.80867E+02</wgt>
<wgt id='3098'>0.81743E+02</wgt>
<wgt id='3099'>0.80189E+02</wgt>
<wgt id='3100'>0.80500E+02</wgt>
<wgt id='3200'>0.78951E+02</wgt>
<wgt id='3201'>0.79273E+02</wgt>
<wgt id='3202'>0.78054E+02</wgt>
<wgt id='3203'>0.78928E+02</wgt>
<wgt id='3204'>0.78484E+02</wgt>
<wgt id='3205'>0.79594E+02</wgt>
<wgt id='3206'>0.79364E+02</wgt>
<wgt id='3207'>0.79496E+02</wgt>
<wgt id='3208'>0.79181E+02</wgt>
<wgt id='3209'>0.78895E+02</wgt>
<wgt id='3210'>0.78988E+02</wgt>
<wgt id='3211'>0.79556E+02</wgt>
<wgt id='3212'>0.78182E+02</wgt>
<wgt id='3213'>0.78901E+02</wgt>
<wgt id='3214'>0.78504E+02</wgt>
<wgt id='3215'>0.78992E+02</wgt>
<wgt id='3216'>0.79464E+02</wgt>
<wgt id='3217'>0.79089E+02</wgt>
<wgt id='3218'>0.78987E+02</wgt>
<wgt id='3219'>0.78771E+02</wgt>
<wgt id='3220'>0.78422E+02</wgt>
<wgt id='3221'>0.79474E+02</wgt>
<wgt id='3222'>0.79727E+02</wgt>
<wgt id='3223'>0.78916E+02</wgt>
<wgt id='3224'>0.78709E+02</wgt>
<wgt id='3225'>0.79376E+02</wgt>
<wgt id='3226'>0.79068E+02</wgt>
<wgt id='3227'>0.78436E+02</wgt>
<wgt id='3228'>0.78509E+02</wgt>
<wgt id='3229'>0.79264E+02</wgt>
<wgt id='3230'>0.79464E+02</wgt>
<wgt id='3231'>0.79213E+02</wgt>
<wgt id='3232'>0.79302E+02</wgt>
<wgt id='3233'>0.79456E+02</wgt>
<wgt id='3234'>0.78950E+02</wgt>
<wgt id='3235'>0.78431E+02</wgt>
<wgt id='3236'>0.78397E+02</wgt>
<wgt id='3237'>0.78620E+02</wgt>
<wgt id='3238'>0.78808E+02</wgt>
<wgt id='3239'>0.78477E+02</wgt>
<wgt id='3240'>0.78841E+02</wgt>
<wgt id='3241'>0.79573E+02</wgt>
<wgt id='3242'>0.78629E+02</wgt>
<wgt id='3243'>0.78189E+02</wgt>
<wgt id='3244'>0.78808E+02</wgt>
<wgt id='3245'>0.79239E+02</wgt>
<wgt id='3246'>0.78497E+02</wgt>
<wgt id='3247'>0.78873E+02</wgt>
<wgt id='3248'>0.78837E+02</wgt>
<wgt id='3249'>0.78606E+02</wgt>
<wgt id='3250'>0.79118E+02</wgt>
<wgt id='3251'>0.78950E+02</wgt>
<wgt id='3252'>0.79215E+02</wgt>
<wgt id='3253'>0.78918E+02</wgt>
<wgt id='3254'>0.78736E+02</wgt>
<wgt id='3255'>0.78817E+02</wgt>
<wgt id='3256'>0.78516E+02</wgt>
<wgt id='3257'>0.78790E+02</wgt>
<wgt id='3258'>0.79253E+02</wgt>
<wgt id='3259'>0.79224E+02</wgt>
<wgt id='3260'>0.79007E+02</wgt>
<wgt id='3261'>0.79453E+02</wgt>
<wgt id='3262'>0.78730E+02</wgt>
<wgt id='3263'>0.79301E+02</wgt>
<wgt id='3264'>0.79094E+02</wgt>
<wgt id='3265'>0.79146E+02</wgt>
<wgt id='3266'>0.78620E+02</wgt>
<wgt id='3267'>0.78870E+02</wgt>
<wgt id='3268'>0.79567E+02</wgt>
<wgt id='3269'>0.79051E+02</wgt>
<wgt id='3270'>0.79006E+02</wgt>
<wgt id='3271'>0.79046E+02</wgt>
<wgt id='3272'>0.79308E+02</wgt>
<wgt id='3273'>0.79015E+02</wgt>
<wgt id='3274'>0.79187E+02</wgt>
<wgt id='3275'>0.79205E+02</wgt>
<wgt id='3276'>0.78637E+02</wgt>
<wgt id='3277'>0.78317E+02</wgt>
<wgt id='3278'>0.79045E+02</wgt>
<wgt id='3279'>0.79412E+02</wgt>
<wgt id='3280'>0.78774E+02</wgt>
<wgt id='3281'>0.79341E+02</wgt>
<wgt id='3282'>0.79352E+02</wgt>
<wgt id='3283'>0.79145E+02</wgt>
<wgt id='3284'>0.78936E+02</wgt>
<wgt id='3285'>0.78414E+02</wgt>
<wgt id='3286'>0.78817E+02</wgt>
<wgt id='3287'>0.78786E+02</wgt>
<wgt id='3288'>0.79100E+02</wgt>
<wgt id='3289'>0.79808E+02</wgt>
<wgt id='3290'>0.79791E+02</wgt>
<wgt id='3291'>0.77837E+02</wgt>
<wgt id='3292'>0.77798E+02</wgt>
<wgt id='3293'>0.78784E+02</wgt>
<wgt id='3294'>0.77934E+02</wgt>
<wgt id='3295'>0.78313E+02</wgt>
<wgt id='3296'>0.80075E+02</wgt>
<wgt id='3297'>0.78711E+02</wgt>
<wgt id='3298'>0.78949E+02</wgt>
<wgt id='3299'>0.78611E+02</wgt>
<wgt id='3300'>0.79551E+02</wgt>
<wgt id='3301'>0.77601E+02</wgt>
<wgt id='3302'>0.80175E+02</wgt>
<wgt id='3400'>0.79139E+02</wgt>
<wgt id='3401'>0.79253E+02</wgt>
<wgt id='3402'>0.78874E+02</wgt>
<wgt id='3403'>0.79806E+02</wgt>
<wgt id='3404'>0.79973E+02</wgt>
<wgt id='3405'>0.79742E+02</wgt>
<wgt id='3406'>0.79221E+02</wgt>
<wgt id='3407'>0.78688E+02</wgt>
<wgt id='3408'>0.80323E+02</wgt>
<wgt id='3409'>0.80056E+02</wgt>
<wgt id='3410'>0.79339E+02</wgt>
<wgt id='3411'>0.79515E+02</wgt>
<wgt id='3412'>0.79681E+02</wgt>
<wgt id='3413'>0.79002E+02</wgt>
<wgt id='3414'>0.78971E+02</wgt>
<wgt id='3415'>0.79239E+02</wgt>
<wgt id='3416'>0.78875E+02</wgt>
<wgt id='3417'>0.79112E+02</wgt>
<wgt id='3418'>0.78852E+02</wgt>
<wgt id='3419'>0.78795E+02</wgt>
<wgt id='3420'>0.79523E+02</wgt>
<wgt id='3421'>0.79552E+02</wgt>
<wgt id='3422'>0.79436E+02</wgt>
<wgt id='3423'>0.79695E+02</wgt>
<wgt id='3424'>0.79397E+02</wgt>
<wgt id='3425'>0.79075E+02</wgt>
<wgt id='3426'>0.79328E+02</wgt>
<wgt id='3427'>0.79186E+02</wgt>
<wgt id='3428'>0.79596E+02</wgt>
<wgt id='3429'>0.78697E+02</wgt>
<wgt id='3430'>0.79330E+02</wgt>
<wgt id='3431'>0.79106E+02</wgt>
<wgt id='3432'>0.79005E+02</wgt>
<wgt id='3433'>0.78143E+02</wgt>
<wgt id='3434'>0.79255E+02</wgt>
<wgt id='3435'>0.79445E+02</wgt>
<wgt id='3436'>0.79223E+02</wgt>
<wgt id='3437'>0.79003E+02</wgt>
<wgt id='3438'>0.78579E+02</wgt>
<wgt id='3439'>0.79424E+02</wgt>
<wgt id='3440'>0.79350E+02</wgt>
<wgt id='3441'>0.79226E+02</wgt>
<wgt id='3442'>0.78101E+02</wgt>
<wgt id='3443'>0.78963E+02</wgt>
<wgt id='3444'>0.78893E+02</wgt>
<wgt id='3445'>0.78610E+02</wgt>
<wgt id='3446'>0.79822E+02</wgt>
<wgt id='3447'>0.80300E+02</wgt>
<wgt id='3448'>0.79551E+02</wgt>
<wgt id='3449'>0.79690E+02</wgt>
<wgt id='3450'>0.79115E+02</wgt>
<wgt id='3451'>0.79784E+02</wgt>
<wgt id='3452'>0.78873E+02</wgt>
<wgt id='3453'>0.78527E+02</wgt>
<wgt id='3454'>0.78429E+02</wgt>
<wgt id='3455'>0.80046E+02</wgt>
<wgt id='3456'>0.79279E+02</wgt>
<wgt id='3457'>0.79936E+02</wgt>
<wgt id='3458'>0.79235E+02</wgt>
<wgt id='3459'>0.78982E+02</wgt>
<wgt id='3460'>0.78933E+02</wgt>
<wgt id='3461'>0.78731E+02</wgt>
<wgt id='3462'>0.78995E+02</wgt>
<wgt id='3463'>0.78524E+02</wgt>
<wgt id='3464'>0.79395E+02</wgt>
<wgt id='3465'>0.79096E+02</wgt>
<wgt id='3466'>0.79434E+02</wgt>
<wgt id='3467'>0.78787E+02</wgt>
<wgt id='3468'>0.78660E+02</wgt>
<wgt id='3469'>0.79120E+02</wgt>
<wgt id='3470'>0.79061E+02</wgt>
<wgt id='3471'>0.79017E+02</wgt>
<wgt id='3472'>0.78581E+02</wgt>
<wgt id='3473'>0.79492E+02</wgt>
<wgt id='3474'>0.78981E+02</wgt>
<wgt id='3475'>0.79043E+02</wgt>
<wgt id='3476'>0.79176E+02</wgt>
<wgt id='3477'>0.78439E+02</wgt>
<wgt id='3478'>0.79627E+02</wgt>
<wgt id='3479'>0.79615E+02</wgt>
<wgt id='3480'>0.78617E+02</wgt>
<wgt id='3481'>0.79223E+02</wgt>
<wgt id='3482'>0.78887E+02</wgt>
<wgt id='3483'>0.78060E+02</wgt>
<wgt id='3484'>0.79130E+02</wgt>
<wgt id='3485'>0.78855E+02</wgt>
<wgt id='3486'>0.78100E+02</wgt>
<wgt id='3487'>0.79323E+02</wgt>
<wgt id='3488'>0.79574E+02</wgt>
<wgt id='3489'>0.78484E+02</wgt>
<wgt id='3490'>0.79598E+02</wgt>
<wgt id='3491'>0.79036E+02</wgt>
<wgt id='3492'>0.79460E+02</wgt>
<wgt id='3493'>0.78733E+02</wgt>
<wgt id='3494'>0.77791E+02</wgt>
<wgt id='3495'>0.79398E+02</wgt>
<wgt id='3496'>0.78242E+02</wgt>
<wgt id='3497'>0.78771E+02</wgt>
<wgt id='3498'>0.79291E+02</wgt>
<wgt id='3499'>0.79093E+02</wgt>
<wgt id='3500'>0.79531E+02</wgt>
</rwgt>
</event>
<event>
     13 322200  8.11039E+01  8.53982E+00 -1.00000E+00  1.99629E-01
      -2    -1     0     0     0   512  0.000000000E+00  0.000000000E+00  2.258183591E+02  2.258183591E+02  0.000000000E+00  0.00000E+00  9.000E+00
       2    -1     0     0   503     0  0.000000000E+00  0.000000000E+00 -4.800572487E+02  4.800572487E+02  0.000000000E+00  0.00000E+00  9.000E+00
       6     2     1     2   502     0 -2.050533995E+02 -1.142594114E+02  1.685263062E+01  2.906825751E+02  1.706172282E+02  0.00000E+00  9.000E+00
      -6     2     1     2     0   512  2.081397106E+02  1.222220202E+02 -2.333054377E+02  3.764539505E+02  1.703695638E+02  0.00000E+00  9.000E+00
      21     1     1     2   503   502 -3.086311099E+00 -7.962608827E+00 -3.778608252E+01  3.873908217E+01  4.768371582E-07  0.00000E+00  9.000E+00
      24     2     3     3     0     0 -5.261285478E+01  2.116469904E+01  2.299290649E+01  8.662102569E+01  6.130637299E+01  0.00000E+00  9.000E+00
       5     1     3     3   502     0 -1.524405447E+02 -1.354241104E+02 -6.140275872E+00  2.040615494E+02  5.060000000E+00  0.00000E+00 -1.000E+00
     -24     2     4     4     0     0  9.022133704E+01  4.721541163E+01 -3.699889267E+01  1.354298908E+02  8.125978410E+01  0.00000E+00  9.000E+00
      -5     1     4     4     0   512  1.179183736E+02  7.500660859E+01 -1.963065450E+02  2.410240597E+02  5.060000000E+00  0.00000E+00  1.000E+00
     -13     1     6     6     0     0 -1.052451897E+01 -7.023075397E-01  3.593980431E+01  3.745583322E+01  1.057000000E-01  0.00000E+00  1.000E+00
      14     1     6     6     0     0 -4.208833580E+01  2.186700658E+01 -1.294689783E+01  4.916519247E+01  0.000000000E+00  0.00000E+00 -1.000E+00
      11     1     8     8     0     0 -1.486380742E+01  1.000247574E+01  1.714785112E-01  1.791679930E+01  5.100000000E-04  0.00000E+00 -1.000E+00
     -12     1     8     8     0     0  1.050851445E+02  3.721293589E+01 -3.717037118E+01  1.175130915E+02  0.000000000E+00  0.00000E+00  1.000E+00
#rwgt            1           5   20.791994313514881               10         595           0
<rwgt>
<wgt id='1001'>0.81104E+02</wgt>
<wgt id='1002'>0.74206E+02</wgt>
<wgt id='1003'>0.87786E+02</wgt>
<wgt id='1004'>0.78554E+02</wgt>
<wgt id='1005'>0.73073E+02</wgt>
<wgt id='1006'>0.83812E+02</wgt>
<wgt id='1007'>0.80606E+02</wgt>
<wgt id='1008'>0.71718E+02</wgt>
<wgt id='1009'>0.89302E+02</wgt>
<wgt id='2000'>0.81104E+02</wgt>
<wgt id='2001'>0.80993E+02</wgt>
<wgt id='2002'>0.81067E+02</wgt>
<wgt id='2003'>0.81011E+02</wgt>
<wgt id='2004'>0.81309E+02</wgt>
<wgt id='2005'>0.80688E+02</wgt>
<wgt id='2006'>0.80927E+02</wgt>
<wgt id='2007'>0.80720E+02</wgt>
<wgt id='2008'>0.80518E+02</wgt>
<wgt id='2009'>0.81601E+02</wgt>
<wgt id='2010'>0.80803E+02</wgt>
<wgt id='2011'>0.81487E+02</wgt>
<wgt id='2012'>0.80995E+02</wgt>
<wgt id='2013'>0.81645E+02</wgt>
<wgt id='2014'>0.80969E+02</wgt>
<wgt id='2015'>0.82051E+02</wgt>
<wgt id='2016'>0.80716E+02</wgt>
<wgt id='2017'>0.81005E+02</wgt>
<wgt id='2018'>0.80361E+02</wgt>
<wgt id='2019'>0.81403E+02</wgt>
<wgt id='2020'>0.80995E+02</wgt>
<wgt id='2021'>0.80631E+02</wgt>
<wgt id='2022'>0.81543E+02</wgt>
<wgt id='2023'>0.80888E+02</wgt>
<wgt id='2024'>0.80495E+02</wgt>
<wgt id='2025'>0.81071E+02</wgt>
<wgt id='2026'>0.81062E+02</wgt>
<wgt id='2027'>0.81598E+02</wgt>
<wgt id='2028'>0.81037E+02</wgt>
<wgt id='2029'>0.81935E+02</wgt>
<wgt id='2030'>0.81263E+02</wgt>
<wgt id='2031'>0.82007E+02</wgt>
<wgt id='2032'>0.80882E+02</wgt>
<wgt id='2033'>0.81321E+02</wgt>
<wgt id='2034'>0.81257E+02</wgt>
<wgt id='2035'>0.80946E+02</wgt>
<wgt id='2036'>0.80862E+02</wgt>
<wgt id='2037'>0.81262E+02</wgt>
<wgt id='2038'>0.81204E+02</wgt>
<wgt id='2039'>0.81206E+02</wgt>
<wgt id='2040'>0.81075E+02</wgt>
<wgt id='2041'>0.80956E+02</wgt>
<wgt id='2042'>0.80996E+02</wgt>
<wgt id='2043'>0.81076E+02</wgt>
<wgt id='2044'>0.81168E+02</wgt>
<wgt id='2045'>0.81080E+02</wgt>
<wgt id='2046'>0.81266E+02</wgt>
<wgt id='2047'>0.80953E+02</wgt>
<wgt id='2048'>0.81400E+02</wgt>
<wgt id='2049'>0.80679E+02</wgt>
<wgt id='2050'>0.81176E+02</wgt>
<wgt id='2051'>0.81296E+02</wgt>
<wgt id='2052'>0.81143E+02</wgt>
<wgt id='2053'>0.80989E+02</wgt>
<wgt id='2054'>0.81136E+02</wgt>
<wgt id='2055'>0.81295E+02</wgt>
<wgt id='2056'>0.81356E+02</wgt>
<wgt id='2057'>0.81362E+02</wgt>
<wgt id='2058'>0.81249E+02</wgt>
<wgt id='2059'>0.81052E+02</wgt>
<wgt id='2060'>0.81281E+02</wgt>
<wgt id='2061'>0.81202E+02</wgt>
<wgt id='2062'>0.80914E+02</wgt>
<wgt id='2063'>0.80880E+02</wgt>
<wgt id='2064'>0.81021E+02</wgt>
<wgt id='2065'>0.81188E+02</wgt>
<wgt id='2066'>0.81327E+02</wgt>
<wgt id='2067'>0.81180E+02</wgt>
<wgt id='2068'>0.81246E+02</wgt>
<wgt id='2069'>0.81039E+02</wgt>
<wgt id='2070'>0.81151E+02</wgt>
<wgt id='2071'>0.80987E+02</wgt>
<wgt id='2072'>0.81066E+02</wgt>
<wgt id='2073'>0.81129E+02</wgt>
<wgt id='2074'>0.81110E+02</wgt>
<wgt id='2075'>0.81108E+02</wgt>
<wgt id='2076'>0.81093E+02</wgt>
<wgt id='2077'>0.81149E+02</wgt>
<wgt id='2078'>0.81253E+02</wgt>
<wgt id='2079'>0.80959E+02</wgt>
<wgt id='2080'>0.81106E+02</wgt>
<wgt id='2081'>0.81104E+02</wgt>
<wgt id='2082'>0.81084E+02</wgt>
<wgt id='2083'>0.81163E+02</wgt>
<wgt id='2084'>0.81321E+02</wgt>
<wgt id='2085'>0.81108E+02</wgt>
<wgt id='2086'>0.81038E+02</wgt>
<wgt id='2087'>0.81080E+02</wgt>
<wgt id='2088'>0.81058E+02</wgt>
<wgt id='2089'>0.81227E+02</wgt>
<wgt id='2090'>0.81017E+02</wgt>
<wgt id='2091'>0.81110E+02</wgt>
<wgt id='2092'>0.81139E+02</wgt>
<wgt id='2093'>0.81186E+02</wgt>
<wgt id='2094'>0.81218E+02</wgt>
<wgt id='2095'>0.81095E+02</wgt>
<wgt id='2096'>0.81179E+02</wgt>
<wgt id='2097'>0.81036E+02</wgt>
<wgt id='2098'>0.81108E+02</wgt>
<wgt id='2099'>0.81155E+02</wgt>
<wgt id='2100'>0.81104E+02</wgt>
<wgt id='2101'>0.79018E+02</wgt>
<wgt id='2102'>0.83555E+02</wgt>
<wgt id='2200'>0.81311E+02</wgt>
<wgt id='2201'>0.71121E+02</wgt>
<wgt id='2202'>0.73107E+02</wgt>
<wgt id='2203'>0.75295E+02</wgt>
<wgt id='2204'>0.77321E+02</wgt>
<wgt id='2205'>0.80080E+02</wgt>
<wgt id='2206'>0.82347E+02</wgt>
<wgt id='2207'>0.85570E+02</wgt>
<wgt id='2208'>0.87497E+02</wgt>
<wgt id='2300'>0.83856E+02</wgt>
<wgt id='2301'>0.83838E+02</wgt>
<wgt id='2302'>0.83939E+02</wgt>
<wgt id='2303'>0.83751E+02</wgt>
<wgt id='2304'>0.84075E+02</wgt>
<wgt id='2305'>0.83775E+02</wgt>
<wgt id='2306'>0.83798E+02</wgt>
<wgt id='2307'>0.83897E+02</wgt>
<wgt id='2308'>0.83825E+02</wgt>
<wgt id='2309'>0.84046E+02</wgt>
<wgt id='2310'>0.83523E+02</wgt>
<wgt id='2311'>0.83794E+02</wgt>
<wgt id='2312'>0.83759E+02</wgt>
<wgt id='2313'>0.84067E+02</wgt>
<wgt id='2314'>0.84266E+02</wgt>
<wgt id='2315'>0.83434E+02</wgt>
<wgt id='2316'>0.84004E+02</wgt>
<wgt id='2317'>0.83616E+02</wgt>
<wgt id='2318'>0.83903E+02</wgt>
<wgt id='2319'>0.83793E+02</wgt>
<wgt id='2320'>0.83539E+02</wgt>
<wgt id='2321'>0.84367E+02</wgt>
<wgt id='2322'>0.83950E+02</wgt>
<wgt id='2323'>0.84105E+02</wgt>
<wgt id='2324'>0.84058E+02</wgt>
<wgt id='2325'>0.83429E+02</wgt>
<wgt id='2326'>0.83684E+02</wgt>
<wgt id='2327'>0.84029E+02</wgt>
<wgt id='2328'>0.84063E+02</wgt>
<wgt id='2329'>0.84221E+02</wgt>
<wgt id='2330'>0.83274E+02</wgt>
<wgt id='2331'>0.83962E+02</wgt>
<wgt id='2332'>0.83435E+02</wgt>
<wgt id='2333'>0.84162E+02</wgt>
<wgt id='2334'>0.83722E+02</wgt>
<wgt id='2335'>0.83549E+02</wgt>
<wgt id='2336'>0.83384E+02</wgt>
<wgt id='2337'>0.83416E+02</wgt>
<wgt id='2338'>0.83495E+02</wgt>
<wgt id='2339'>0.83696E+02</wgt>
<wgt id='2340'>0.83686E+02</wgt>
<wgt id='2341'>0.83461E+02</wgt>
<wgt id='2342'>0.83754E+02</wgt>
<wgt id='2343'>0.84026E+02</wgt>
<wgt id='2344'>0.83533E+02</wgt>
<wgt id='2345'>0.83773E+02</wgt>
<wgt id='2346'>0.83648E+02</wgt>
<wgt id='2347'>0.83931E+02</wgt>
<wgt id='2348'>0.84054E+02</wgt>
<wgt id='2349'>0.83898E+02</wgt>
<wgt id='2350'>0.84054E+02</wgt>
<wgt id='2351'>0.84221E+02</wgt>
<wgt id='2352'>0.83863E+02</wgt>
<wgt id='2353'>0.83628E+02</wgt>
<wgt id='2354'>0.83953E+02</wgt>
<wgt id='2355'>0.83822E+02</wgt>
<wgt id='2356'>0.83855E+02</wgt>
<wgt id='2357'>0.83660E+02</wgt>
<wgt id='2358'>0.83542E+02</wgt>
<wgt id='2359'>0.84087E+02</wgt>
<wgt id='2360'>0.84070E+02</wgt>
<wgt id='2361'>0.83907E+02</wgt>
<wgt id='2362'>0.83761E+02</wgt>
<wgt id='2363'>0.84064E+02</wgt>
<wgt id='2364'>0.83720E+02</wgt>
<wgt id='2365'>0.83941E+02</wgt>
<wgt id='2366'>0.83946E+02</wgt>
<wgt id='2367'>0.83710E+02</wgt>
<wgt id='2368'>0.83877E+02</wgt>
<wgt id='2369'>0.83763E+02</wgt>
<wgt id='2370'>0.83601E+02</wgt>
<wgt id='2371'>0.83788E+02</wgt>
<wgt id='2372'>0.83929E+02</wgt>
<wgt id='2373'>0.83755E+02</wgt>
<wgt id='2374'>0.83965E+02</wgt>
<wgt id='2375'>0.83716E+02</wgt>
<wgt id='2376'>0.83822E+02</wgt>
<wgt id='2377'>0.83927E+02</wgt>
<wgt id='2378'>0.83896E+02</wgt>
<wgt id='2379'>0.83838E+02</wgt>
<wgt id='2380'>0.83899E+02</wgt>
<wgt id='2381'>0.83882E+02</wgt>
<wgt id='2382'>0.83719E+02</wgt>
<wgt id='2383'>0.83997E+02</wgt>
<wgt id='2384'>0.83737E+02</wgt>
<wgt id='2385'>0.83772E+02</wgt>
<wgt id='2386'>0.83881E+02</wgt>
<wgt id='2387'>0.83884E+02</wgt>
<wgt id='2388'>0.83726E+02</wgt>
<wgt id='2389'>0.83447E+02</wgt>
<wgt id='2390'>0.83901E+02</wgt>
<wgt id='2391'>0.83887E+02</wgt>
<wgt id='2392'>0.83741E+02</wgt>
<wgt id='2393'>0.83989E+02</wgt>
<wgt id='2394'>0.83938E+02</wgt>
<wgt id='2395'>0.83989E+02</wgt>
<wgt id='2396'>0.83861E+02</wgt>
<wgt id='2397'>0.83880E+02</wgt>
<wgt id='2398'>0.83829E+02</wgt>
<wgt id='2399'>0.83916E+02</wgt>
<wgt id='2400'>0.83727E+02</wgt>
<wgt id='2401'>0.81830E+02</wgt>
<wgt id='2402'>0.86098E+02</wgt>
<wgt id='2500'>0.77539E+02</wgt>
<wgt id='2501'>0.79846E+02</wgt>
<wgt id='2600'>0.80087E+02</wgt>
<wgt id='2601'>0.80114E+02</wgt>
<wgt id='2602'>0.80050E+02</wgt>
<wgt id='2603'>0.80098E+02</wgt>
<wgt id='2604'>0.80126E+02</wgt>
<wgt id='2605'>0.80071E+02</wgt>
<wgt id='2606'>0.79942E+02</wgt>
<wgt id='2607'>0.79848E+02</wgt>
<wgt id='2608'>0.80467E+02</wgt>
<wgt id='2609'>0.79939E+02</wgt>
<wgt id='2610'>0.79929E+02</wgt>
<wgt id='2611'>0.79814E+02</wgt>
<wgt id='2612'>0.80006E+02</wgt>
<wgt id='2613'>0.80514E+02</wgt>
<wgt id='2614'>0.79941E+02</wgt>
<wgt id='2615'>0.79916E+02</wgt>
<wgt id='2616'>0.79924E+02</wgt>
<wgt id='2617'>0.80375E+02</wgt>
<wgt id='2618'>0.80086E+02</wgt>
<wgt id='2619'>0.79999E+02</wgt>
<wgt id='2620'>0.80022E+02</wgt>
<wgt id='2621'>0.80220E+02</wgt>
<wgt id='2622'>0.79985E+02</wgt>
<wgt id='2623'>0.80044E+02</wgt>
<wgt id='2624'>0.80104E+02</wgt>
<wgt id='2625'>0.79974E+02</wgt>
<wgt id='2626'>0.80406E+02</wgt>
<wgt id='2627'>0.79946E+02</wgt>
<wgt id='2628'>0.79828E+02</wgt>
<wgt id='2629'>0.80173E+02</wgt>
<wgt id='2630'>0.79866E+02</wgt>
<wgt id='2631'>0.79821E+02</wgt>
<wgt id='2632'>0.80143E+02</wgt>
<wgt id='2633'>0.80016E+02</wgt>
<wgt id='2634'>0.80187E+02</wgt>
<wgt id='2635'>0.80059E+02</wgt>
<wgt id='2636'>0.80056E+02</wgt>
<wgt id='2637'>0.80127E+02</wgt>
<wgt id='2638'>0.80017E+02</wgt>
<wgt id='2639'>0.80254E+02</wgt>
<wgt id='2640'>0.80197E+02</wgt>
<wgt id='2641'>0.80103E+02</wgt>
<wgt id='2642'>0.80139E+02</wgt>
<wgt id='2643'>0.80080E+02</wgt>
<wgt id='2644'>0.80126E+02</wgt>
<wgt id='2645'>0.80142E+02</wgt>
<wgt id='2646'>0.80087E+02</wgt>
<wgt id='2647'>0.80149E+02</wgt>
<wgt id='2648'>0.80130E+02</wgt>
<wgt id='2649'>0.80030E+02</wgt>
<wgt id='2650'>0.80117E+02</wgt>
<wgt id='2651'>0.79361E+02</wgt>
<wgt id='2652'>0.80712E+02</wgt>
<wgt id='2700'>0.78347E+02</wgt>
<wgt id='2701'>0.79361E+02</wgt>
<wgt id='2702'>0.79589E+02</wgt>
<wgt id='2703'>0.80662E+02</wgt>
<wgt id='2704'>0.80712E+02</wgt>
<wgt id='2705'>0.81753E+02</wgt>
<wgt id='2800'>0.84485E+02</wgt>
<wgt id='4000'>0.79386E+02</wgt>
<wgt id='4001'>0.79735E+02</wgt>
<wgt id='4002'>0.79032E+02</wgt>
<wgt id='4003'>0.79294E+02</wgt>
<wgt id='4004'>0.79976E+02</wgt>
<wgt id='4005'>0.78786E+02</wgt>
<wgt id='4006'>0.79892E+02</wgt>
<wgt id='4007'>0.76662E+02</wgt>
<wgt id='4008'>0.81869E+02</wgt>
<wgt id='4009'>0.77375E+02</wgt>
<wgt id='4010'>0.80989E+02</wgt>
<wgt id='4011'>0.79078E+02</wgt>
<wgt id='4012'>0.80461E+02</wgt>
<wgt id='4013'>0.78984E+02</wgt>
<wgt id='4014'>0.79270E+02</wgt>
<wgt id='4015'>0.80064E+02</wgt>
<wgt id='4016'>0.78093E+02</wgt>
<wgt id='4017'>0.80825E+02</wgt>
<wgt id='4018'>0.77656E+02</wgt>
<wgt id='4019'>0.79738E+02</wgt>
<wgt id='4020'>0.77666E+02</wgt>
<wgt id='4021'>0.78929E+02</wgt>
<wgt id='4022'>0.80106E+02</wgt>
<wgt id='4023'>0.80124E+02</wgt>
<wgt id='4024'>0.78156E+02</wgt>
<wgt id='4025'>0.79448E+02</wgt>
<wgt id='4026'>0.79494E+02</wgt>
<wgt id='4027'>0.78150E+02</wgt>
<wgt id='4028'>0.80187E+02</wgt>
<wgt id='4029'>0.78849E+02</wgt>
<wgt id='4030'>0.78643E+02</wgt>
<wgt id='4031'>0.78941E+02</wgt>
<wgt id='4032'>0.79990E+02</wgt>
<wgt id='4033'>0.77799E+02</wgt>
<wgt id='4034'>0.80678E+02</wgt>
<wgt id='4035'>0.79058E+02</wgt>
<wgt id='4036'>0.79232E+02</wgt>
<wgt id='4037'>0.80608E+02</wgt>
<wgt id='4038'>0.77682E+02</wgt>
<wgt id='4039'>0.79500E+02</wgt>
<wgt id='4040'>0.78697E+02</wgt>
<wgt id='4041'>0.79843E+02</wgt>
<wgt id='4042'>0.78483E+02</wgt>
<wgt id='4043'>0.78742E+02</wgt>
<wgt id='4044'>0.79102E+02</wgt>
<wgt id='4045'>0.78782E+02</wgt>
<wgt id='4046'>0.79687E+02</wgt>
<wgt id='4047'>0.80327E+02</wgt>
<wgt id='4048'>0.78287E+02</wgt>
<wgt id='4049'>0.79802E+02</wgt>
<wgt id='4050'>0.78094E+02</wgt>
<wgt id='4051'>0.79336E+02</wgt>
<wgt id='4052'>0.78342E+02</wgt>
<wgt id='4053'>0.79223E+02</wgt>
<wgt id='4054'>0.79245E+02</wgt>
<wgt id='4055'>0.78480E+02</wgt>
<wgt id='4056'>0.78708E+02</wgt>
<wgt id='4057'>0.79057E+02</wgt>
<wgt id='4058'>0.79598E+02</wgt>
<wgt id='4100'>0.79760E+02</wgt>
<wgt id='4101'>0.79568E+02</wgt>
<wgt id='4102'>0.79225E+02</wgt>
<wgt id='4103'>0.79086E+02</wgt>
<wgt id='4200'>0.79634E+02</wgt>
<wgt id='4201'>0.79186E+02</wgt>
<wgt id='4202'>0.79946E+02</wgt>
<wgt id='4203'>0.80900E+02</wgt>
<wgt id='4204'>0.78766E+02</wgt>
<wgt id='4205'>0.80023E+02</wgt>
<wgt id='4206'>0.78612E+02</wgt>
<wgt id='4207'>0.79080E+02</wgt>
<wgt id='4208'>0.78584E+02</wgt>
<wgt id='4209'>0.80000E+02</wgt>
<wgt id='4210'>0.78977E+02</wgt>
<wgt id='4211'>0.78659E+02</wgt>
<wgt id='4212'>0.80276E+02</wgt>
<wgt id='4213'>0.81090E+02</wgt>
<wgt id='4214'>0.77189E+02</wgt>
<wgt id='4215'>0.79874E+02</wgt>
<wgt id='4216'>0.79640E+02</wgt>
<wgt id='4217'>0.79482E+02</wgt>
<wgt id='4218'>0.79690E+02</wgt>
<wgt id='4219'>0.80462E+02</wgt>
<wgt id='4220'>0.78054E+02</wgt>
<wgt id='4221'>0.79289E+02</wgt>
<wgt id='4222'>0.80155E+02</wgt>
<wgt id='4223'>0.78028E+02</wgt>
<wgt id='4224'>0.80904E+02</wgt>
<wgt id='4225'>0.79199E+02</wgt>
<wgt id='4226'>0.79688E+02</wgt>
<wgt id='4227'>0.78751E+02</wgt>
<wgt id='4228'>0.80249E+02</wgt>
<wgt id='4229'>0.78637E+02</wgt>
<wgt id='4230'>0.79924E+02</wgt>
<wgt id='4231'>0.81016E+02</wgt>
<wgt id='4232'>0.77222E+02</wgt>
<wgt id='4233'>0.80119E+02</wgt>
<wgt id='4234'>0.78925E+02</wgt>
<wgt id='4235'>0.79564E+02</wgt>
<wgt id='4236'>0.78846E+02</wgt>
<wgt id='4237'>0.80208E+02</wgt>
<wgt id='4238'>0.78895E+02</wgt>
<wgt id='4239'>0.79176E+02</wgt>
<wgt id='4240'>0.78790E+02</wgt>
<wgt id='4241'>0.80114E+02</wgt>
<wgt id='4242'>0.78793E+02</wgt>
<wgt id='4243'>0.77880E+02</wgt>
<wgt id='4244'>0.82085E+02</wgt>
<wgt id='4245'>0.79225E+02</wgt>
<wgt id='4246'>0.79953E+02</wgt>
<wgt id='4247'>0.80179E+02</wgt>
<wgt id='4248'>0.78947E+02</wgt>
<wgt id='4249'>0.78931E+02</wgt>
<wgt id='4250'>0.79775E+02</wgt>
<wgt id='4251'>0.79112E+02</wgt>
<wgt id='4252'>0.80010E+02</wgt>
<wgt id='4253'>0.79424E+02</wgt>
<wgt id='4254'>0.79441E+02</wgt>
<wgt id='4255'>0.79038E+02</wgt>
<wgt id='4256'>0.79270E+02</wgt>
<wgt id='4257'>0.79066E+02</wgt>
<wgt id='4258'>0.79795E+02</wgt>
<wgt id='4300'>0.77305E+02</wgt>
<wgt id='4301'>0.79748E+02</wgt>
<wgt id='5000'>0.78914E+02</wgt>
<wgt id='5001'>0.78415E+02</wgt>
<wgt id='5002'>0.79555E+02</wgt>
<wgt id='5003'>0.78809E+02</wgt>
<wgt id='5004'>0.79010E+02</wgt>
<wgt id='5005'>0.78886E+02</wgt>
<wgt id='5006'>0.78960E+02</wgt>
<wgt id='5007'>0.79341E+02</wgt>
<wgt id='5008'>0.78567E+02</wgt>
<wgt id='5009'>0.79120E+02</wgt>
<wgt id='5010'>0.78702E+02</wgt>
<wgt id='5011'>0.78099E+02</wgt>
<wgt id='5012'>0.79704E+02</wgt>
<wgt id='5013'>0.79348E+02</wgt>
<wgt id='5014'>0.78605E+02</wgt>
<wgt id='5015'>0.79377E+02</wgt>
<wgt id='5016'>0.79377E+02</wgt>
<wgt id='5017'>0.78761E+02</wgt>
<wgt id='5018'>0.79017E+02</wgt>
<wgt id='5019'>0.78493E+02</wgt>
<wgt id='5020'>0.79497E+02</wgt>
<wgt id='5021'>0.78881E+02</wgt>
<wgt id='5022'>0.78949E+02</wgt>
<wgt id='5023'>0.78930E+02</wgt>
<wgt id='5024'>0.78876E+02</wgt>
<wgt id='5025'>0.79177E+02</wgt>
<wgt id='5026'>0.78608E+02</wgt>
<wgt id='5027'>0.78764E+02</wgt>
<wgt id='5028'>0.79331E+02</wgt>
<wgt id='5029'>0.78126E+02</wgt>
<wgt id='5030'>0.79367E+02</wgt>
<wgt id='5031'>0.79059E+02</wgt>
<wgt id='5032'>0.78500E+02</wgt>
<wgt id='5033'>0.78858E+02</wgt>
<wgt id='5034'>0.78973E+02</wgt>
<wgt id='5035'>0.79127E+02</wgt>
<wgt id='5036'>0.78618E+02</wgt>
<wgt id='5037'>0.79142E+02</wgt>
<wgt id='5038'>0.78785E+02</wgt>
<wgt id='5039'>0.78913E+02</wgt>
<wgt id='5040'>0.78922E+02</wgt>
<wgt id='5041'>0.78929E+02</wgt>
<wgt id='5042'>0.78891E+02</wgt>
<wgt id='5043'>0.78075E+02</wgt>
<wgt id='5044'>0.79662E+02</wgt>
<wgt id='5045'>0.78707E+02</wgt>
<wgt id='5046'>0.79366E+02</wgt>
<wgt id='5047'>0.78808E+02</wgt>
<wgt id='5048'>0.79565E+02</wgt>
<wgt id='5049'>0.79270E+02</wgt>
<wgt id='5050'>0.78450E+02</wgt>
<wgt id='5051'>0.78973E+02</wgt>
<wgt id='5052'>0.78884E+02</wgt>
<wgt id='5053'>0.78572E+02</wgt>
<wgt id='5054'>0.79219E+02</wgt>
<wgt id='5055'>0.78677E+02</wgt>
<wgt id='5056'>0.79196E+02</wgt>
<wgt id='5057'>0.78577E+02</wgt>
<wgt id='5058'>0.79091E+02</wgt>
<wgt id='5059'>0.79307E+02</wgt>
<wgt id='5060'>0.78731E+02</wgt>
<wgt id='5061'>0.78409E+02</wgt>
<wgt id='5062'>0.78793E+02</wgt>
<wgt id='5063'>0.79492E+02</wgt>
<wgt id='5064'>0.79013E+02</wgt>
<wgt id='5100'>0.78914E+02</wgt>
<wgt id='5101'>0.78962E+02</wgt>
<wgt id='6000'>0.78840E+02</wgt>
<wgt id='6001'>0.78639E+02</wgt>
<wgt id='6002'>0.77575E+02</wgt>
<wgt id='6003'>0.78760E+02</wgt>
<wgt id='6004'>0.77381E+02</wgt>
<wgt id='6005'>0.78868E+02</wgt>
<wgt id='6006'>0.78491E+02</wgt>
<wgt id='6007'>0.78780E+02</wgt>
<wgt id='6008'>0.78805E+02</wgt>
<wgt id='6009'>0.78947E+02</wgt>
<wgt id='6010'>0.78936E+02</wgt>
<wgt id='6011'>0.79038E+02</wgt>
<wgt id='6012'>0.79067E+02</wgt>
<wgt id='6013'>0.78948E+02</wgt>
<wgt id='6014'>0.78801E+02</wgt>
<wgt id='6015'>0.78777E+02</wgt>
<wgt id='6016'>0.79472E+02</wgt>
<wgt id='6017'>0.79039E+02</wgt>
<wgt id='6018'>0.79703E+02</wgt>
<wgt id='6019'>0.78877E+02</wgt>
<wgt id='6020'>0.78900E+02</wgt>
<wgt id='6021'>0.78264E+02</wgt>
<wgt id='6022'>0.78757E+02</wgt>
<wgt id='6023'>0.78784E+02</wgt>
<wgt id='6024'>0.78903E+02</wgt>
<wgt id='6025'>0.78380E+02</wgt>
<wgt id='6026'>0.78681E+02</wgt>
<wgt id='6027'>0.78974E+02</wgt>
<wgt id='6028'>0.78660E+02</wgt>
<wgt id='6029'>0.78734E+02</wgt>
<wgt id='6030'>0.78792E+02</wgt>
<wgt id='6031'>0.78839E+02</wgt>
<wgt id='6032'>0.78643E+02</wgt>
<wgt id='6033'>0.78794E+02</wgt>
<wgt id='6034'>0.78971E+02</wgt>
<wgt id='6035'>0.78993E+02</wgt>
<wgt id='6036'>0.78966E+02</wgt>
<wgt id='6037'>0.79670E+02</wgt>
<wgt id='6038'>0.78789E+02</wgt>
<wgt id='6039'>0.78969E+02</wgt>
<wgt id='6040'>0.78894E+02</wgt>
<wgt id='6041'>0.78059E+02</wgt>
<wgt id='6042'>0.80489E+02</wgt>
<wgt id='7000'>0.88365E+02</wgt>
<wgt id='7001'>0.88547E+02</wgt>
<wgt id='7002'>0.88233E+02</wgt>
<wgt id='7003'>0.88106E+02</wgt>
<wgt id='7004'>0.88674E+02</wgt>
<wgt id='7005'>0.88348E+02</wgt>
<wgt id='7006'>0.88430E+02</wgt>
<wgt id='7007'>0.87697E+02</wgt>
<wgt id='7008'>0.89072E+02</wgt>
<wgt id='7009'>0.88758E+02</wgt>
<wgt id='7010'>0.88020E+02</wgt>
<wgt id='7011'>0.88486E+02</wgt>
<wgt id='7012'>0.88295E+02</wgt>
<wgt id='7013'>0.88113E+02</wgt>
<wgt id='7014'>0.88662E+02</wgt>
<wgt id='7015'>0.88234E+02</wgt>
<wgt id='7016'>0.88445E+02</wgt>
<wgt id='7017'>0.88242E+02</wgt>
<wgt id='7018'>0.88537E+02</wgt>
<wgt id='7019'>0.88783E+02</wgt>
<wgt id='7020'>0.88007E+02</wgt>
<wgt id='7021'>0.87184E+02</wgt>
<wgt id='7022'>0.89616E+02</wgt>
<wgt id='7023'>0.87692E+02</wgt>
<wgt id='7024'>0.89142E+02</wgt>
<wgt id='7025'>0.87715E+02</wgt>
<wgt id='7026'>0.88898E+02</wgt>
<wgt id='7027'>0.87391E+02</wgt>
<wgt id='7028'>0.88868E+02</wgt>
<wgt id='8000'>0.80683E+02</wgt>
<wgt id='8001'>0.80671E+02</wgt>
<wgt id='8002'>0.80577E+02</wgt>
<wgt id='8003'>0.80941E+02</wgt>
<wgt id='8004'>0.80686E+02</wgt>
<wgt id='8005'>0.80878E+02</wgt>
<wgt id='8006'>0.80513E+02</wgt>
<wgt id='8007'>0.80930E+02</wgt>
<wgt id='8008'>0.80201E+02</wgt>
<wgt id='8009'>0.80515E+02</wgt>
<wgt id='8010'>0.80834E+02</wgt>
<wgt id='8011'>0.80464E+02</wgt>
<wgt id='8012'>0.80918E+02</wgt>
<wgt id='8013'>0.80794E+02</wgt>
<wgt id='8014'>0.80396E+02</wgt>
<wgt id='8015'>0.80825E+02</wgt>
<wgt id='8016'>0.80688E+02</wgt>
<wgt id='8017'>0.80547E+02</wgt>
<wgt id='8018'>0.80482E+02</wgt>
<wgt id='8019'>0.80605E+02</wgt>
<wgt id='8020'>0.80496E+02</wgt>
<wgt id='8021'>0.80533E+02</wgt>
<wgt id='8022'>0.80661E+02</wgt>
<wgt id='8023'>0.80447E+02</wgt>
<wgt id='8024'>0.80780E+02</wgt>
<wgt id='8025'>0.80742E+02</wgt>
<wgt id='8026'>0.80619E+02</wgt>
<wgt id='8027'>0.80406E+02</wgt>
<wgt id='8028'>0.81120E+02</wgt>
<wgt id='8029'>0.80320E+02</wgt>
<wgt id='3000'>0.81104E+02</wgt>
<wgt id='3001'>0.91961E+02</wgt>
<wgt id='3002'>0.81574E+02</wgt>
<wgt id='3003'>0.83192E+02</wgt>
<wgt id='3004'>0.81948E+02</wgt>
<wgt id='3005'>0.78609E+02</wgt>
<wgt id='3006'>0.81722E+02</wgt>
<wgt id='3007'>0.81425E+02</wgt>
<wgt id='3008'>0.79668E+02</wgt>
<wgt id='3009'>0.79620E+02</wgt>
<wgt id='3010'>0.78434E+02</wgt>
<wgt id='3011'>0.80660E+02</wgt>
<wgt id='3012'>0.79138E+02</wgt>
<wgt id='3013'>0.78896E+02</wgt>
<wgt id='3014'>0.82904E+02</wgt>
<wgt id='3015'>0.81513E+02</wgt>
<wgt id='3016'>0.79613E+02</wgt>
<wgt id='3017'>0.83785E+02</wgt>
<wgt id='3018'>0.80416E+02</wgt>
<wgt id='3019'>0.81508E+02</wgt>
<wgt id='3020'>0.76220E+02</wgt>
<wgt id='3021'>0.83008E+02</wgt>
<wgt id='3022'>0.84880E+02</wgt>
<wgt id='3023'>0.82895E+02</wgt>
<wgt id='3024'>0.80772E+02</wgt>
<wgt id='3025'>0.79718E+02</wgt>
<wgt id='3026'>0.82790E+02</wgt>
<wgt id='3027'>0.85299E+02</wgt>
<wgt id='3028'>0.81981E+02</wgt>
<wgt id='3029'>0.81430E+02</wgt>
<wgt id='3030'>0.81586E+02</wgt>
<wgt id='3031'>0.85057E+02</wgt>
<wgt id='3032'>0.78783E+02</wgt>
<wgt id='3033'>0.82880E+02</wgt>
<wgt id='3034'>0.80463E+02</wgt>
<wgt id='3035'>0.81387E+02</wgt>
<wgt id='3036'>0.82973E+02</wgt>
<wgt id='3037'>0.81357E+02</wgt>
<wgt id='3038'>0.78722E+02</wgt>
<wgt id='3039'>0.81786E+02</wgt>
<wgt id='3040'>0.80616E+02</wgt>
<wgt id='3041'>0.82278E+02</wgt>
<wgt id='3042'>0.81117E+02</wgt>
<wgt id='3043'>0.83434E+02</wgt>
<wgt id='3044'>0.83587E+02</wgt>
<wgt id='3045'>0.80346E+02</wgt>
<wgt id='3046'>0.82371E+02</wgt>
<wgt id='3047'>0.81760E+02</wgt>
<wgt id='3048'>0.79359E+02</wgt>
<wgt id='3049'>0.81471E+02</wgt>
<wgt id='3050'>0.80939E+02</wgt>
<wgt id='3051'>0.80442E+02</wgt>
<wgt id='3052'>0.79900E+02</wgt>
<wgt id='3053'>0.80221E+02</wgt>
<wgt id='3054'>0.83803E+02</wgt>
<wgt id='3055'>0.86023E+02</wgt>
<wgt id='3056'>0.82687E+02</wgt>
<wgt id='3057'>0.84316E+02</wgt>
<wgt id='3058'>0.81546E+02</wgt>
<wgt id='3059'>0.80210E+02</wgt>
<wgt id='3060'>0.84517E+02</wgt>
<wgt id='3061'>0.83001E+02</wgt>
<wgt id='3062'>0.79324E+02</wgt>
<wgt id='3063'>0.81612E+02</wgt>
<wgt id='3064'>0.79269E+02</wgt>
<wgt id='3065'>0.81429E+02</wgt>
<wgt id='3066'>0.79013E+02</wgt>
<wgt id='3067'>0.82896E+02</wgt>
<wgt id='3068'>0.80901E+02</wgt>
<wgt id='3069'>0.82005E+02</wgt>
<wgt id='3070'>0.80633E+02</wgt>
<wgt id='3071'>0.80137E+02</wgt>
<wgt id='3072'>0.78130E+02</wgt>
<wgt id='3073'>0.73385E+02</wgt>
<wgt id='3074'>0.76328E+02</wgt>
<wgt id='3075'>0.76383E+02</wgt>
<wgt id='3076'>0.85234E+02</wgt>
<wgt id='3077'>0.80486E+02</wgt>
<wgt id='3078'>0.81549E+02</wgt>
<wgt id='3079'>0.78685E+02</wgt>
<wgt id='3080'>0.82460E+02</wgt>
<wgt id='3081'>0.82809E+02</wgt>
<wgt id='3082'>0.79613E+02</wgt>
<wgt id='3083'>0.77425E+02</wgt>
<wgt id='3084'>0.79401E+02</wgt>
<wgt id='3085'>0.80753E+02</wgt>
<wgt id='3086'>0.85294E+02</wgt>
<wgt id='3087'>0.79233E+02</wgt>
<wgt id='3088'>0.82994E+02</wgt>
<wgt id='3089'>0.71496E+02</wgt>
<wgt id='3090'>0.80213E+02</wgt>
<wgt id='3091'>0.83037E+02</wgt>
<wgt id='3092'>0.75102E+02</wgt>
<wgt id='3093'>0.78236E+02</wgt>
<wgt id='3094'>0.79783E+02</wgt>
<wgt id='3095'>0.82111E+02</wgt>
<wgt id='3096'>0.81609E+02</wgt>
<wgt id='3097'>0.82937E+02</wgt>
<wgt id='3098'>0.81859E+02</wgt>
<wgt id='3099'>0.80286E+02</wgt>
<wgt id='3100'>0.82209E+02</wgt>
<wgt id='3200'>0.80065E+02</wgt>
<wgt id='3201'>0.81263E+02</wgt>
<wgt id='3202'>0.78570E+02</wgt>
<wgt id='3203'>0.81977E+02</wgt>
<wgt id='3204'>0.80270E+02</wgt>
<wgt id='3205'>0.80431E+02</wgt>
<wgt id='3206'>0.81719E+02</wgt>
<wgt id='3207'>0.79184E+02</wgt>
<wgt id='3208'>0.81190E+02</wgt>
<wgt id='3209'>0.78845E+02</wgt>
<wgt id='3210'>0.79501E+02</wgt>
<wgt id='3211'>0.79614E+02</wgt>
<wgt id='3212'>0.80265E+02</wgt>
<wgt id='3213'>0.79618E+02</wgt>
<wgt id='3214'>0.80732E+02</wgt>
<wgt id='3215'>0.81136E+02</wgt>
<wgt id='3216'>0.79581E+02</wgt>
<wgt id='3217'>0.79944E+02</wgt>
<wgt id='3218'>0.78757E+02</wgt>
<wgt id='3219'>0.80475E+02</wgt>
<wgt id='3220'>0.81129E+02</wgt>
<wgt id='3221'>0.80570E+02</wgt>
<wgt id='3222'>0.79808E+02</wgt>
<wgt id='3223'>0.80399E+02</wgt>
<wgt id='3224'>0.78504E+02</wgt>
<wgt id='3225'>0.80689E+02</wgt>
<wgt id='3226'>0.81009E+02</wgt>
<wgt id='3227'>0.80016E+02</wgt>
<wgt id='3228'>0.79391E+02</wgt>
<wgt id='3229'>0.79313E+02</wgt>
<wgt id='3230'>0.79596E+02</wgt>
<wgt id='3231'>0.80273E+02</wgt>
<wgt id='3232'>0.79475E+02</wgt>
<wgt id='3233'>0.81757E+02</wgt>
<wgt id='3234'>0.78969E+02</wgt>
<wgt id='3235'>0.81646E+02</wgt>
<wgt id='3236'>0.79445E+02</wgt>
<wgt id='3237'>0.80921E+02</wgt>
<wgt id='3238'>0.81268E+02</wgt>
<wgt id='3239'>0.78267E+02</wgt>
<wgt id='3240'>0.79451E+02</wgt>
<wgt id='3241'>0.80548E+02</wgt>
<wgt id='3242'>0.79928E+02</wgt>
<wgt id='3243'>0.79853E+02</wgt>
<wgt id='3244'>0.80532E+02</wgt>
<wgt id='3245'>0.78448E+02</wgt>
<wgt id='3246'>0.80391E+02</wgt>
<wgt id='3247'>0.79154E+02</wgt>
<wgt id='3248'>0.79630E+02</wgt>
<wgt id='3249'>0.79095E+02</wgt>
<wgt id='3250'>0.80619E+02</wgt>
<wgt id='3251'>0.79459E+02</wgt>
<wgt id='3252'>0.80162E+02</wgt>
<wgt id='3253'>0.80851E+02</wgt>
<wgt id='3254'>0.81671E+02</wgt>
<wgt id='3255'>0.80892E+02</wgt>
<wgt id='3256'>0.80743E+02</wgt>
<wgt id='3257'>0.79709E+02</wgt>
<wgt id='3258'>0.79021E+02</wgt>
<wgt id='3259'>0.78568E+02</wgt>
<wgt id='3260'>0.79925E+02</wgt>
<wgt id='3261'>0.79602E+02</wgt>
<wgt id='3262'>0.82116E+02</wgt>
<wgt id='3263'>0.78598E+02</wgt>
<wgt id='3264'>0.78899E+02</wgt>
<wgt id='3265'>0.79590E+02</wgt>
<wgt id='3266'>0.80921E+02</wgt>
<wgt id='3267'>0.80923E+02</wgt>
<wgt id='3268'>0.78712E+02</wgt>
<wgt id='3269'>0.79595E+02</wgt>
<wgt id='3270'>0.79199E+02</wgt>
<wgt id='3271'>0.79215E+02</wgt>
<wgt id='3272'>0.80185E+02</wgt>
<wgt id='3273'>0.79664E+02</wgt>
<wgt id='3274'>0.79839E+02</wgt>
<wgt id='3275'>0.79265E+02</wgt>
<wgt id='3276'>0.78745E+02</wgt>
<wgt id='3277'>0.80391E+02</wgt>
<wgt id='3278'>0.80381E+02</wgt>
<wgt id='3279'>0.78558E+02</wgt>
<wgt id='3280'>0.79312E+02</wgt>
<wgt id='3281'>0.80769E+02</wgt>
<wgt id='3282'>0.81184E+02</wgt>
<wgt id='3283'>0.80668E+02</wgt>
<wgt id='3284'>0.79752E+02</wgt>
<wgt id='3285'>0.80487E+02</wgt>
<wgt id='3286'>0.82496E+02</wgt>
<wgt id='3287'>0.81077E+02</wgt>
<wgt id='3288'>0.78861E+02</wgt>
<wgt id='3289'>0.80335E+02</wgt>
<wgt id='3290'>0.79894E+02</wgt>
<wgt id='3291'>0.79631E+02</wgt>
<wgt id='3292'>0.82750E+02</wgt>
<wgt id='3293'>0.80715E+02</wgt>
<wgt id='3294'>0.78869E+02</wgt>
<wgt id='3295'>0.80308E+02</wgt>
<wgt id='3296'>0.81528E+02</wgt>
<wgt id='3297'>0.79503E+02</wgt>
<wgt id='3298'>0.80107E+02</wgt>
<wgt id='3299'>0.79243E+02</wgt>
<wgt id='3300'>0.80068E+02</wgt>
<wgt id='3301'>0.79361E+02</wgt>
<wgt id='3302'>0.80712E+02</wgt>
<wgt id='3400'>0.78668E+02</wgt>
<wgt id='3401'>0.77958E+02</wgt>
<wgt id='3402'>0.79187E+02</wgt>
<wgt id='3403'>0.78145E+02</wgt>
<wgt id='3404'>0.76902E+02</wgt>
<wgt id='3405'>0.77532E+02</wgt>
<wgt id='3406'>0.78913E+02</wgt>
<wgt id='3407'>0.79604E+02</wgt>
<wgt id='3408'>0.76796E+02</wgt>
<wgt id='3409'>0.78957E+02</wgt>
<wgt id='3410'>0.79172E+02</wgt>
<wgt id='3411'>0.77116E+02</wgt>
<wgt id='3412'>0.78347E+02</wgt>
<wgt id='3413'>0.78823E+02</wgt>
<wgt id='3414'>0.80016E+02</wgt>
<wgt id='3415'>0.79332E+02</wgt>
<wgt id='3416'>0.80132E+02</wgt>
<wgt id='3417'>0.79908E+02</wgt>
<wgt id='3418'>0.80163E+02</wgt>
<wgt id='3419'>0.78030E+02</wgt>
<wgt id='3420'>0.78695E+02</wgt>
<wgt id='3421'>0.80773E+02</wgt>
<wgt id='3422'>0.77319E+02</wgt>
<wgt id='3423'>0.78503E+02</wgt>
<wgt id='3424'>0.78739E+02</wgt>
<wgt id='3425'>0.78476E+02</wgt>
<wgt id='3426'>0.77367E+02</wgt>
<wgt id='3427'>0.79309E+02</wgt>
<wgt id='3428'>0.79915E+02</wgt>
<wgt id='3429'>0.78574E+02</wgt>
<wgt id='3430'>0.79361E+02</wgt>
<wgt id='3431'>0.77722E+02</wgt>
<wgt id='3432'>0.78908E+02</wgt>
<wgt id='3433'>0.78832E+02</wgt>
<wgt id='3434'>0.78307E+02</wgt>
<wgt id='3435'>0.77446E+02</wgt>
<wgt id='3436'>0.80027E+02</wgt>
<wgt id='3437'>0.78631E+02</wgt>
<wgt id='3438'>0.78870E+02</wgt>
<wgt id='3439'>0.78131E+02</wgt>
<wgt id='3440'>0.78110E+02</wgt>
<wgt id='3441'>0.79677E+02</wgt>
<wgt id='3442'>0.78958E+02</wgt>
<wgt id='3443'>0.77302E+02</wgt>
<wgt id='3444'>0.78659E+02</wgt>
<wgt id='3445'>0.76921E+02</wgt>
<wgt id='3446'>0.78269E+02</wgt>
<wgt id='3447'>0.78229E+02</wgt>
<wgt id='3448'>0.81283E+02</wgt>
<wgt id='3449'>0.77991E+02</wgt>
<wgt id='3450'>0.78925E+02</wgt>
<wgt id='3451'>0.77240E+02</wgt>
<wgt id='3452'>0.78251E+02</wgt>
<wgt id='3453'>0.79771E+02</wgt>
<wgt id='3454'>0.77800E+02</wgt>
<wgt id='3455'>0.77954E+02</wgt>
<wgt id='3456'>0.76929E+02</wgt>
<wgt id='3457'>0.78692E+02</wgt>
<wgt id='3458'>0.77544E+02</wgt>
<wgt id='3459'>0.78409E+02</wgt>
<wgt id='3460'>0.79159E+02</wgt>
<wgt id='3461'>0.79618E+02</wgt>
<wgt id='3462'>0.78792E+02</wgt>
<wgt id='3463'>0.78342E+02</wgt>
<wgt id='3464'>0.77813E+02</wgt>
<wgt id='3465'>0.76804E+02</wgt>
<wgt id='3466'>0.77822E+02</wgt>
<wgt id='3467'>0.79240E+02</wgt>
<wgt id='3468'>0.79296E+02</wgt>
<wgt id='3469'>0.79000E+02</wgt>
<wgt id='3470'>0.78382E+02</wgt>
<wgt id='3471'>0.77554E+02</wgt>
<wgt id='3472'>0.78103E+02</wgt>
<wgt id='3473'>0.77646E+02</wgt>
<wgt id='3474'>0.79401E+02</wgt>
<wgt id='3475'>0.78684E+02</wgt>
<wgt id='3476'>0.79948E+02</wgt>
<wgt id='3477'>0.79332E+02</wgt>
<wgt id='3478'>0.78825E+02</wgt>
<wgt id='3479'>0.79088E+02</wgt>
<wgt id='3480'>0.78995E+02</wgt>
<wgt id='3481'>0.78902E+02</wgt>
<wgt id='3482'>0.79746E+02</wgt>
<wgt id='3483'>0.80934E+02</wgt>
<wgt id='3484'>0.79519E+02</wgt>
<wgt id='3485'>0.78217E+02</wgt>
<wgt id='3486'>0.78255E+02</wgt>
<wgt id='3487'>0.78673E+02</wgt>
<wgt id='3488'>0.78297E+02</wgt>
<wgt id='3489'>0.78760E+02</wgt>
<wgt id='3490'>0.76768E+02</wgt>
<wgt id='3491'>0.80559E+02</wgt>
<wgt id='3492'>0.78770E+02</wgt>
<wgt id='3493'>0.77616E+02</wgt>
<wgt id='3494'>0.78248E+02</wgt>
<wgt id='3495'>0.80186E+02</wgt>
<wgt id='3496'>0.77822E+02</wgt>
<wgt id='3497'>0.79782E+02</wgt>
<wgt id='3498'>0.79152E+02</wgt>
<wgt id='3499'>0.79923E+02</wgt>
<wgt id='3500'>0.78670E+02</wgt>
</rwgt>
</event>
<event>
     13 322200  8.11039E+01  1.28207E+01 -1.00000E+00  1.80496E-01
      21    -1     0     0   503   504  0.000000000E+00  0.000000000E+00  3.604105821E+01  3.604105821E+01  0.000000000E+00  0.00000E+00  9.000E+00
      21    -1     0     0   504   505  0.000000000E+00  0.000000000E+00 -1.048445685E+03  1.048445685E+03  0.000000000E+00  0.00000E+00  9.000E+00
       6     2     1     2   502     0  5.018051463E+01  3.474575907E+01 -3.418856695E+02  3.871939495E+02  1.711957701E+02  0.00000E+00  9.000E+00
      -6     2     1     2     0   505 -4.155104391E+01 -2.526407018E+01 -6.371508149E+02  6.615464216E+02  1.712242521E+02  0.00000E+00  9.000E+00
      21     1     1     2   503   502 -8.629470725E+00 -9.481688884E+00 -3.336814212E+01  3.574637181E+01  4.768371582E-07  0.00000E+00  9.000E+00
      24     2     3     3     0     0  1.463054331E+01  5.068604480E+01 -3.198910789E+02  3.421688589E+02  1.093896599E+02  0.00000E+00  9.000E+00
       5     1     3     3   502     0  3.554997133E+01 -1.594028573E+01 -2.199459055E+01  4.502509061E+01  5.060000000E+00  0.00000E+00 -1.000E+00
     -24     2     4     4     0     0 -1.020762557E+01 -5.868403159E+01 -2.439589832E+02  2.656616861E+02  8.667257231E+01  0.00000E+00  9.000E+00
      -5     1     4     4     0   505 -3.134341834E+01  3.341996141E+01 -3.931918317E+02  3.958847355E+02  5.060000000E+00  0.00000E+00  1.000E+00
     -15     1     6     6     0     0  2.277677359E+01  3.751326342E+01 -3.319658795E+01  5.505631234E+01  1.777000000E+00  0.00000E+00  1.000E+00
      16     1     6     6     0     0 -8.146230283E+00  1.317278138E+01 -2.866944910E+02  2.871125465E+02  0.000000000E+00  0.00000E+00 -1.000E+00
      13     1     8     8     0     0  3.598549639E+01 -4.230236589E+01 -1.438494634E+02  1.541983314E+02  1.057000000E-01  0.00000E+00 -1.000E+00
     -14     1     8     8     0     0 -4.619312196E+01 -1.638166570E+01 -1.001095198E+02  1.114633547E+02  0.000000000E+00  0.00000E+00  1.000E+00
#rwgt            1           1   724.58324280546879               10        1472           0
<rwgt>
<wgt id='1001'>0.81104E+02</wgt>
<wgt id='1002'>0.79427E+02</wgt>
<wgt id='1003'>0.84622E+02</wgt>
<wgt id='1004'>0.72625E+02</wgt>
<wgt id='1005'>0.70846E+02</wgt>
<wgt id='1006'>0.75790E+02</wgt>
<wgt id='1007'>0.90394E+02</wgt>
<wgt id='1008'>0.89012E+02</wgt>
<wgt id='1009'>0.94288E+02</wgt>
<wgt id='2000'>0.81104E+02</wgt>
<wgt id='2001'>0.80978E+02</wgt>
<wgt id='2002'>0.81030E+02</wgt>
<wgt id='2003'>0.81119E+02</wgt>
<wgt id='2004'>0.81429E+02</wgt>
<wgt id='2005'>0.80860E+02</wgt>
<wgt id='2006'>0.81268E+02</wgt>
<wgt id='2007'>0.81198E+02</wgt>
<wgt id='2008'>0.81098E+02</wgt>
<wgt id='2009'>0.81283E+02</wgt>
<wgt id='2010'>0.81037E+02</wgt>
<wgt id='2011'>0.81197E+02</wgt>
<wgt id='2012'>0.81358E+02</wgt>
<wgt id='2013'>0.81080E+02</wgt>
<wgt id='2014'>0.81105E+02</wgt>
<wgt id='2015'>0.81160E+02</wgt>
<wgt id='2016'>0.81064E+02</wgt>
<wgt id='2017'>0.81081E+02</wgt>
<wgt id='2018'>0.80855E+02</wgt>
<wgt id='2019'>0.80735E+02</wgt>
<wgt id='2020'>0.80918E+02</wgt>
<wgt id='2021'>0.81166E+02</wgt>
<wgt id='2022'>0.81022E+02</wgt>
<wgt id='2023'>0.81138E+02</wgt>
<wgt id='2024'>0.80661E+02</wgt>
<wgt id='2025'>0.81314E+02</wgt>
<wgt id='2026'>0.81165E+02</wgt>
<wgt id='2027'>0.81478E+02</wgt>
<wgt id='2028'>0.80763E+02</wgt>
<wgt id='2029'>0.80968E+02</wgt>
<wgt id='2030'>0.81208E+02</wgt>
<wgt id='2031'>0.80779E+02</wgt>
<wgt id='2032'>0.80991E+02</wgt>
<wgt id='2033'>0.80960E+02</wgt>
<wgt id='2034'>0.80782E+02</wgt>
<wgt id='2035'>0.81192E+02</wgt>
<wgt id='2036'>0.81253E+02</wgt>
<wgt id='2037'>0.80948E+02</wgt>
<wgt id='2038'>0.81010E+02</wgt>
<wgt id='2039'>0.81005E+02</wgt>
<wgt id='2040'>0.80950E+02</wgt>
<wgt id='2041'>0.81000E+02</wgt>
<wgt id='2042'>0.81250E+02</wgt>
<wgt id='2043'>0.81115E+02</wgt>
<wgt id='2044'>0.81140E+02</wgt>
<wgt id='2045'>0.81099E+02</wgt>
<wgt id='2046'>0.80987E+02</wgt>
<wgt id='2047'>0.81122E+02</wgt>
<wgt id='2048'>0.81067E+02</wgt>
<wgt id='2049'>0.81024E+02</wgt>
<wgt id='2050'>0.81013E+02</wgt>
<wgt id='2051'>0.81008E+02</wgt>
<wgt id='2052'>0.81249E+02</wgt>
<wgt id='2053'>0.81085E+02</wgt>
<wgt id='2054'>0.81068E+02</wgt>
<wgt id='2055'>0.81049E+02</wgt>
<wgt id='2056'>0.81047E+02</wgt>
<wgt id='2057'>0.81143E+02</wgt>
<wgt id='2058'>0.81164E+02</wgt>
<wgt id='2059'>0.81090E+02</wgt>
<wgt id='2060'>0.81088E+02</wgt>
<wgt id='2061'>0.81052E+02</wgt>
<wgt id='2062'>0.81203E+02</wgt>
<wgt id='2063'>0.81113E+02</wgt>
<wgt id='2064'>0.81121E+02</wgt>
<wgt id='2065'>0.81176E+02</wgt>
<wgt id='2066'>0.81053E+02</wgt>
<wgt id='2067'>0.81061E+02</wgt>
<wgt id='2068'>0.81179E+02</wgt>
<wgt id='2069'>0.81087E+02</wgt>
<wgt id='2070'>0.81119E+02</wgt>
<wgt id='2071'>0.81085E+02</wgt>
<wgt id='2072'>0.81080E+02</wgt>
<wgt id='2073'>0.81124E+02</wgt>
<wgt id='2074'>0.81080E+02</wgt>
<wgt id='2075'>0.81087E+02</wgt>
<wgt id='2076'>0.81097E+02</wgt>
<wgt id='2077'>0.81159E+02</wgt>
<wgt id='2078'>0.81119E+02</wgt>
<wgt id='2079'>0.81085E+02</wgt>
<wgt id='2080'>0.81117E+02</wgt>
<wgt id='2081'>0.81090E+02</wgt>
<wgt id='2082'>0.81121E+02</wgt>
<wgt id='2083'>0.81159E+02</wgt>
<wgt id='2084'>0.81096E+02</wgt>
<wgt id='2085'>0.81118E+02</wgt>
<wgt id='2086'>0.81091E+02</wgt>
<wgt id='2087'>0.81117E+02</wgt>
<wgt id='2088'>0.81099E+02</wgt>
<wgt id='2089'>0.81083E+02</wgt>
<wgt id='2090'>0.81127E+02</wgt>
<wgt id='2091'>0.81115E+02</wgt>
<wgt id='2092'>0.81144E+02</wgt>
<wgt id='2093'>0.81074E+02</wgt>
<wgt id='2094'>0.81110E+02</wgt>
<wgt id='2095'>0.81134E+02</wgt>
<wgt id='2096'>0.81086E+02</wgt>
<wgt id='2097'>0.81127E+02</wgt>
<wgt id='2098'>0.81107E+02</wgt>
<wgt id='2099'>0.81118E+02</wgt>
<wgt id='2100'>0.81104E+02</wgt>
<wgt id='2101'>0.79111E+02</wgt>
<wgt id='2102'>0.83150E+02</wgt>
<wgt id='2200'>0.80915E+02</wgt>
<wgt id='2201'>0.70457E+02</wgt>
<wgt id='2202'>0.72573E+02</wgt>
<wgt id='2203'>0.74861E+02</wgt>
<wgt id='2204'>0.76476E+02</wgt>
<wgt id='2205'>0.79784E+02</wgt>
<wgt id='2206'>0.82263E+02</wgt>
<wgt id='2207'>0.85331E+02</wgt>
<wgt id='2208'>0.87982E+02</wgt>
<wgt id='2300'>0.86219E+02</wgt>
<wgt id='2301'>0.86318E+02</wgt>
<wgt id='2302'>0.86174E+02</wgt>
<wgt id='2303'>0.86179E+02</wgt>
<wgt id='2304'>0.86485E+02</wgt>
<wgt id='2305'>0.86252E+02</wgt>
<wgt id='2306'>0.86200E+02</wgt>
<wgt id='2307'>0.86200E+02</wgt>
<wgt id='2308'>0.86097E+02</wgt>
<wgt id='2309'>0.86101E+02</wgt>
<wgt id='2310'>0.85976E+02</wgt>
<wgt id='2311'>0.86243E+02</wgt>
<wgt id='2312'>0.86372E+02</wgt>
<wgt id='2313'>0.86226E+02</wgt>
<wgt id='2314'>0.86177E+02</wgt>
<wgt id='2315'>0.86177E+02</wgt>
<wgt id='2316'>0.86316E+02</wgt>
<wgt id='2317'>0.86205E+02</wgt>
<wgt id='2318'>0.86289E+02</wgt>
<wgt id='2319'>0.86219E+02</wgt>
<wgt id='2320'>0.86313E+02</wgt>
<wgt id='2321'>0.86311E+02</wgt>
<wgt id='2322'>0.86139E+02</wgt>
<wgt id='2323'>0.86107E+02</wgt>
<wgt id='2324'>0.86202E+02</wgt>
<wgt id='2325'>0.86249E+02</wgt>
<wgt id='2326'>0.86128E+02</wgt>
<wgt id='2327'>0.86289E+02</wgt>
<wgt id='2328'>0.86151E+02</wgt>
<wgt id='2329'>0.86203E+02</wgt>
<wgt id='2330'>0.86569E+02</wgt>
<wgt id='2331'>0.86354E+02</wgt>
<wgt id='2332'>0.86023E+02</wgt>
<wgt id='2333'>0.86007E+02</wgt>
<wgt id='2334'>0.86214E+02</wgt>
<wgt id='2335'>0.85632E+02</wgt>
<wgt id='2336'>0.86230E+02</wgt>
<wgt id='2337'>0.86580E+02</wgt>
<wgt id='2338'>0.86223E+02</wgt>
<wgt id='2339'>0.86196E+02</wgt>
<wgt id='2340'>0.86610E+02</wgt>
<wgt id='2341'>0.86439E+02</wgt>
<wgt id='2342'>0.85997E+02</wgt>
<wgt id='2343'>0.85991E+02</wgt>
<wgt id='2344'>0.86258E+02</wgt>
<wgt id='2345'>0.86212E+02</wgt>
<wgt id='2346'>0.86607E+02</wgt>
<wgt id='2347'>0.86211E+02</wgt>
<wgt id='2348'>0.86302E+02</wgt>
<wgt id='2349'>0.86211E+02</wgt>
<wgt id='2350'>0.85939E+02</wgt>
<wgt id='2351'>0.86400E+02</wgt>
<wgt id='2352'>0.86036E+02</wgt>
<wgt id='2353'>0.86228E+02</wgt>
<wgt id='2354'>0.86308E+02</wgt>
<wgt id='2355'>0.86043E+02</wgt>
<wgt id='2356'>0.86172E+02</wgt>
<wgt id='2357'>0.86230E+02</wgt>
<wgt id='2358'>0.86123E+02</wgt>
<wgt id='2359'>0.86159E+02</wgt>
<wgt id='2360'>0.86335E+02</wgt>
<wgt id='2361'>0.86217E+02</wgt>
<wgt id='2362'>0.86280E+02</wgt>
<wgt id='2363'>0.86157E+02</wgt>
<wgt id='2364'>0.86197E+02</wgt>
<wgt id='2365'>0.86124E+02</wgt>
<wgt id='2366'>0.86247E+02</wgt>
<wgt id='2367'>0.86072E+02</wgt>
<wgt id='2368'>0.86254E+02</wgt>
<wgt id='2369'>0.86158E+02</wgt>
<wgt id='2370'>0.86194E+02</wgt>
<wgt id='2371'>0.86167E+02</wgt>
<wgt id='2372'>0.86232E+02</wgt>
<wgt id='2373'>0.86188E+02</wgt>
<wgt id='2374'>0.86319E+02</wgt>
<wgt id='2375'>0.86247E+02</wgt>
<wgt id='2376'>0.86241E+02</wgt>
<wgt id='2377'>0.86250E+02</wgt>
<wgt id='2378'>0.86274E+02</wgt>
<wgt id='2379'>0.86147E+02</wgt>
<wgt id='2380'>0.86184E+02</wgt>
<wgt id='2381'>0.86190E+02</wgt>
<wgt id='2382'>0.86203E+02</wgt>
<wgt id='2383'>0.86158E+02</wgt>
<wgt id='2384'>0.86157E+02</wgt>
<wgt id='2385'>0.86291E+02</wgt>
<wgt id='2386'>0.86148E+02</wgt>
<wgt id='2387'>0.86153E+02</wgt>
<wgt id='2388'>0.86179E+02</wgt>
<wgt id='2389'>0.86203E+02</wgt>
<wgt id='2390'>0.86256E+02</wgt>
<wgt id='2391'>0.86233E+02</wgt>
<wgt id='2392'>0.86206E+02</wgt>
<wgt id='2393'>0.86233E+02</wgt>
<wgt id='2394'>0.86264E+02</wgt>
<wgt id='2395'>0.86208E+02</wgt>
<wgt id='2396'>0.86206E+02</wgt>
<wgt id='2397'>0.86202E+02</wgt>
<wgt id='2398'>0.86178E+02</wgt>
<wgt id='2399'>0.86219E+02</wgt>
<wgt id='2400'>0.86252E+02</wgt>
<wgt id='2401'>0.84171E+02</wgt>
<wgt id='2402'>0.88683E+02</wgt>
<wgt id='2500'>0.82690E+02</wgt>
<wgt id='2501'>0.87296E+02</wgt>
<wgt id='2600'>0.79301E+02</wgt>
<wgt id='2601'>0.79054E+02</wgt>
<wgt id='2602'>0.79403E+02</wgt>
<wgt id='2603'>0.79294E+02</wgt>
<wgt id='2604'>0.79373E+02</wgt>
<wgt id='2605'>0.79216E+02</wgt>
<wgt id='2606'>0.79377E+02</wgt>
<wgt id='2607'>0.79362E+02</wgt>
<wgt id='2608'>0.79424E+02</wgt>
<wgt id='2609'>0.79231E+02</wgt>
<wgt id='2610'>0.79247E+02</wgt>
<wgt id='2611'>0.79289E+02</wgt>
<wgt id='2612'>0.79296E+02</wgt>
<wgt id='2613'>0.79322E+02</wgt>
<wgt id='2614'>0.79223E+02</wgt>
<wgt id='2615'>0.79159E+02</wgt>
<wgt id='2616'>0.79363E+02</wgt>
<wgt id='2617'>0.79121E+02</wgt>
<wgt id='2618'>0.79347E+02</wgt>
<wgt id='2619'>0.79369E+02</wgt>
<wgt id='2620'>0.79122E+02</wgt>
<wgt id='2621'>0.79430E+02</wgt>
<wgt id='2622'>0.79606E+02</wgt>
<wgt id='2623'>0.79262E+02</wgt>
<wgt id='2624'>0.79238E+02</wgt>
<wgt id='2625'>0.79441E+02</wgt>
<wgt id='2626'>0.79365E+02</wgt>
<wgt id='2627'>0.79422E+02</wgt>
<wgt id='2628'>0.79247E+02</wgt>
<wgt id='2629'>0.79411E+02</wgt>
<wgt id='2630'>0.79534E+02</wgt>
<wgt id='2631'>0.79214E+02</wgt>
<wgt id='2632'>0.79108E+02</wgt>
<wgt id='2633'>0.79230E+02</wgt>
<wgt id='2634'>0.79181E+02</wgt>
<wgt id='2635'>0.79133E+02</wgt>
<wgt id='2636'>0.79359E+02</wgt>
<wgt id='2637'>0.79281E+02</wgt>
<wgt id='2638'>0.79235E+02</wgt>
<wgt id='2639'>0.79317E+02</wgt>
<wgt id='2640'>0.79291E+02</wgt>
<wgt id='2641'>0.79227E+02</wgt>
<wgt id='2642'>0.79299E+02</wgt>
<wgt id='2643'>0.79235E+02</wgt>
<wgt id='2644'>0.79295E+02</wgt>
<wgt id='2645'>0.79257E+02</wgt>
<wgt id='2646'>0.79307E+02</wgt>
<wgt id='2647'>0.79283E+02</wgt>
<wgt id='2648'>0.79296E+02</wgt>
<wgt id='2649'>0.79317E+02</wgt>
<wgt id='2650'>0.79323E+02</wgt>
<wgt id='2651'>0.77913E+02</wgt>
<wgt id='2652'>0.80360E+02</wgt>
<wgt id='2700'>0.76725E+02</wgt>
<wgt id='2701'>0.77913E+02</wgt>
<wgt id='2702'>0.78648E+02</wgt>
<wgt id='2703'>0.79944E+02</wgt>
<wgt id='2704'>0.80360E+02</wgt>
<wgt id='2705'>0.81822E+02</wgt>
<wgt id='2800'>0.81393E+02</wgt>
<wgt id='4000'>0.83314E+02</wgt>
<wgt id='4001'>0.83502E+02</wgt>
<wgt id='4002'>0.83311E+02</wgt>
<wgt id='4003'>0.82440E+02</wgt>
<wgt id='4004'>0.84367E+02</wgt>
<wgt id='4005'>0.83701E+02</wgt>
<wgt id='4006'>0.83135E+02</wgt>
<wgt id='4007'>0.83631E+02</wgt>
<wgt id='4008'>0.83064E+02</wgt>
<wgt id='4009'>0.82757E+02</wgt>
<wgt id='4010'>0.83473E+02</wgt>
<wgt id='4011'>0.83908E+02</wgt>
<wgt id='4012'>0.82586E+02</wgt>
<wgt id='4013'>0.83382E+02</wgt>
<wgt id='4014'>0.83372E+02</wgt>
<wgt id='4015'>0.83630E+02</wgt>
<wgt id='4016'>0.84135E+02</wgt>
<wgt id='4017'>0.83399E+02</wgt>
<wgt id='4018'>0.83242E+02</wgt>
<wgt id='4019'>0.83173E+02</wgt>
<wgt id='4020'>0.83643E+02</wgt>
<wgt id='4021'>0.83580E+02</wgt>
<wgt id='4022'>0.82852E+02</wgt>
<wgt id='4023'>0.83766E+02</wgt>
<wgt id='4024'>0.83625E+02</wgt>
<wgt id='4025'>0.83195E+02</wgt>
<wgt id='4026'>0.83759E+02</wgt>
<wgt id='4027'>0.84158E+02</wgt>
<wgt id='4028'>0.82599E+02</wgt>
<wgt id='4029'>0.84500E+02</wgt>
<wgt id='4030'>0.82337E+02</wgt>
<wgt id='4031'>0.83252E+02</wgt>
<wgt id='4032'>0.84773E+02</wgt>
<wgt id='4033'>0.84061E+02</wgt>
<wgt id='4034'>0.82684E+02</wgt>
<wgt id='4035'>0.83596E+02</wgt>
<wgt id='4036'>0.83072E+02</wgt>
<wgt id='4037'>0.85935E+02</wgt>
<wgt id='4038'>0.81341E+02</wgt>
<wgt id='4039'>0.84911E+02</wgt>
<wgt id='4040'>0.81885E+02</wgt>
<wgt id='4041'>0.83840E+02</wgt>
<wgt id='4042'>0.82750E+02</wgt>
<wgt id='4043'>0.83288E+02</wgt>
<wgt id='4044'>0.82571E+02</wgt>
<wgt id='4045'>0.83226E+02</wgt>
<wgt id='4046'>0.83363E+02</wgt>
<wgt id='4047'>0.83783E+02</wgt>
<wgt id='4048'>0.83442E+02</wgt>
<wgt id='4049'>0.83392E+02</wgt>
<wgt id='4050'>0.83310E+02</wgt>
<wgt id='4051'>0.83299E+02</wgt>
<wgt id='4052'>0.83576E+02</wgt>
<wgt id='4053'>0.83063E+02</wgt>
<wgt id='4054'>0.82969E+02</wgt>
<wgt id='4055'>0.83730E+02</wgt>
<wgt id='4056'>0.82872E+02</wgt>
<wgt id='4057'>0.82666E+02</wgt>
<wgt id='4058'>0.83753E+02</wgt>
<wgt id='4100'>0.83634E+02</wgt>
<wgt id='4101'>0.83433E+02</wgt>
<wgt id='4102'>0.83257E+02</wgt>
<wgt id='4103'>0.83239E+02</wgt>
<wgt id='4200'>0.81773E+02</wgt>
<wgt id='4201'>0.81676E+02</wgt>
<wgt id='4202'>0.82002E+02</wgt>
<wgt id='4203'>0.81463E+02</wgt>
<wgt id='4204'>0.81879E+02</wgt>
<wgt id='4205'>0.81747E+02</wgt>
<wgt id='4206'>0.81971E+02</wgt>
<wgt id='4207'>0.82397E+02</wgt>
<wgt id='4208'>0.81381E+02</wgt>
<wgt id='4209'>0.81454E+02</wgt>
<wgt id='4210'>0.81999E+02</wgt>
<wgt id='4211'>0.82205E+02</wgt>
<wgt id='4212'>0.81437E+02</wgt>
<wgt id='4213'>0.81873E+02</wgt>
<wgt id='4214'>0.81593E+02</wgt>
<wgt id='4215'>0.81756E+02</wgt>
<wgt id='4216'>0.82012E+02</wgt>
<wgt id='4217'>0.81833E+02</wgt>
<wgt id='4218'>0.81672E+02</wgt>
<wgt id='4219'>0.81617E+02</wgt>
<wgt id='4220'>0.81973E+02</wgt>
<wgt id='4221'>0.81515E+02</wgt>
<wgt id='4222'>0.82317E+02</wgt>
<wgt id='4223'>0.80723E+02</wgt>
<wgt id='4224'>0.81718E+02</wgt>
<wgt id='4225'>0.81146E+02</wgt>
<wgt id='4226'>0.82739E+02</wgt>
<wgt id='4227'>0.82435E+02</wgt>
<wgt id='4228'>0.81205E+02</wgt>
<wgt id='4229'>0.80458E+02</wgt>
<wgt id='4230'>0.82880E+02</wgt>
<wgt id='4231'>0.82120E+02</wgt>
<wgt id='4232'>0.81197E+02</wgt>
<wgt id='4233'>0.81906E+02</wgt>
<wgt id='4234'>0.81088E+02</wgt>
<wgt id='4235'>0.82656E+02</wgt>
<wgt id='4236'>0.80858E+02</wgt>
<wgt id='4237'>0.83132E+02</wgt>
<wgt id='4238'>0.79826E+02</wgt>
<wgt id='4239'>0.81334E+02</wgt>
<wgt id='4240'>0.81945E+02</wgt>
<wgt id='4241'>0.81931E+02</wgt>
<wgt id='4242'>0.81581E+02</wgt>
<wgt id='4243'>0.82130E+02</wgt>
<wgt id='4244'>0.81501E+02</wgt>
<wgt id='4245'>0.81894E+02</wgt>
<wgt id='4246'>0.81273E+02</wgt>
<wgt id='4247'>0.81099E+02</wgt>
<wgt id='4248'>0.82127E+02</wgt>
<wgt id='4249'>0.82709E+02</wgt>
<wgt id='4250'>0.80639E+02</wgt>
<wgt id='4251'>0.82826E+02</wgt>
<wgt id='4252'>0.81061E+02</wgt>
<wgt id='4253'>0.82300E+02</wgt>
<wgt id='4254'>0.80955E+02</wgt>
<wgt id='4255'>0.83196E+02</wgt>
<wgt id='4256'>0.81070E+02</wgt>
<wgt id='4257'>0.80405E+02</wgt>
<wgt id='4258'>0.82169E+02</wgt>
<wgt id='4300'>0.82448E+02</wgt>
<wgt id='4301'>0.83316E+02</wgt>
<wgt id='5000'>0.82931E+02</wgt>
<wgt id='5001'>0.82969E+02</wgt>
<wgt id='5002'>0.82882E+02</wgt>
<wgt id='5003'>0.82946E+02</wgt>
<wgt id='5004'>0.82917E+02</wgt>
<wgt id='5005'>0.82939E+02</wgt>
<wgt id='5006'>0.82917E+02</wgt>
<wgt id='5007'>0.83016E+02</wgt>
<wgt id='5008'>0.82861E+02</wgt>
<wgt id='5009'>0.83011E+02</wgt>
<wgt id='5010'>0.82849E+02</wgt>
<wgt id='5011'>0.83164E+02</wgt>
<wgt id='5012'>0.82706E+02</wgt>
<wgt id='5013'>0.83037E+02</wgt>
<wgt id='5014'>0.82855E+02</wgt>
<wgt id='5015'>0.82560E+02</wgt>
<wgt id='5016'>0.82560E+02</wgt>
<wgt id='5017'>0.83250E+02</wgt>
<wgt id='5018'>0.82716E+02</wgt>
<wgt id='5019'>0.83192E+02</wgt>
<wgt id='5020'>0.82573E+02</wgt>
<wgt id='5021'>0.83025E+02</wgt>
<wgt id='5022'>0.82781E+02</wgt>
<wgt id='5023'>0.82879E+02</wgt>
<wgt id='5024'>0.83054E+02</wgt>
<wgt id='5025'>0.82746E+02</wgt>
<wgt id='5026'>0.83136E+02</wgt>
<wgt id='5027'>0.82985E+02</wgt>
<wgt id='5028'>0.82785E+02</wgt>
<wgt id='5029'>0.83905E+02</wgt>
<wgt id='5030'>0.82383E+02</wgt>
<wgt id='5031'>0.82373E+02</wgt>
<wgt id='5032'>0.84637E+02</wgt>
<wgt id='5033'>0.82860E+02</wgt>
<wgt id='5034'>0.83007E+02</wgt>
<wgt id='5035'>0.82942E+02</wgt>
<wgt id='5036'>0.82918E+02</wgt>
<wgt id='5037'>0.82663E+02</wgt>
<wgt id='5038'>0.83082E+02</wgt>
<wgt id='5039'>0.83093E+02</wgt>
<wgt id='5040'>0.82530E+02</wgt>
<wgt id='5041'>0.82604E+02</wgt>
<wgt id='5042'>0.83274E+02</wgt>
<wgt id='5043'>0.83107E+02</wgt>
<wgt id='5044'>0.82810E+02</wgt>
<wgt id='5045'>0.83218E+02</wgt>
<wgt id='5046'>0.82403E+02</wgt>
<wgt id='5047'>0.83027E+02</wgt>
<wgt id='5048'>0.82511E+02</wgt>
<wgt id='5049'>0.82831E+02</wgt>
<wgt id='5050'>0.83173E+02</wgt>
<wgt id='5051'>0.83180E+02</wgt>
<wgt id='5052'>0.82761E+02</wgt>
<wgt id='5053'>0.83152E+02</wgt>
<wgt id='5054'>0.83085E+02</wgt>
<wgt id='5055'>0.82970E+02</wgt>
<wgt id='5056'>0.83004E+02</wgt>
<wgt id='5057'>0.82581E+02</wgt>
<wgt id='5058'>0.83177E+02</wgt>
<wgt id='5059'>0.82773E+02</wgt>
<wgt id='5060'>0.83028E+02</wgt>
<wgt id='5061'>0.83141E+02</wgt>
<wgt id='5062'>0.83183E+02</wgt>
<wgt id='5063'>0.83175E+02</wgt>
<wgt id='5064'>0.83049E+02</wgt>
<wgt id='5100'>0.82931E+02</wgt>
<wgt id='5101'>0.82921E+02</wgt>
<wgt id='6000'>0.82198E+02</wgt>
<wgt id='6001'>0.81740E+02</wgt>
<wgt id='6002'>0.81538E+02</wgt>
<wgt id='6003'>0.81944E+02</wgt>
<wgt id='6004'>0.82581E+02</wgt>
<wgt id='6005'>0.81659E+02</wgt>
<wgt id='6006'>0.82162E+02</wgt>
<wgt id='6007'>0.81592E+02</wgt>
<wgt id='6008'>0.82556E+02</wgt>
<wgt id='6009'>0.82030E+02</wgt>
<wgt id='6010'>0.82400E+02</wgt>
<wgt id='6011'>0.82178E+02</wgt>
<wgt id='6012'>0.82393E+02</wgt>
<wgt id='6013'>0.81741E+02</wgt>
<wgt id='6014'>0.81825E+02</wgt>
<wgt id='6015'>0.81499E+02</wgt>
<wgt id='6016'>0.82649E+02</wgt>
<wgt id='6017'>0.81791E+02</wgt>
<wgt id='6018'>0.81564E+02</wgt>
<wgt id='6019'>0.82303E+02</wgt>
<wgt id='6020'>0.82393E+02</wgt>
<wgt id='6021'>0.82078E+02</wgt>
<wgt id='6022'>0.82402E+02</wgt>
<wgt id='6023'>0.82139E+02</wgt>
<wgt id='6024'>0.82299E+02</wgt>
<wgt id='6025'>0.82728E+02</wgt>
<wgt id='6026'>0.82057E+02</wgt>
<wgt id='6027'>0.82254E+02</wgt>
<wgt id='6028'>0.81720E+02</wgt>
<wgt id='6029'>0.81959E+02</wgt>
<wgt id='6030'>0.81639E+02</wgt>
<wgt id='6031'>0.81930E+02</wgt>
<wgt id='6032'>0.82166E+02</wgt>
<wgt id='6033'>0.82094E+02</wgt>
<wgt id='6034'>0.82586E+02</wgt>
<wgt id='6035'>0.82261E+02</wgt>
<wgt id='6036'>0.83075E+02</wgt>
<wgt id='6037'>0.82181E+02</wgt>
<wgt id='6038'>0.82095E+02</wgt>
<wgt id='6039'>0.82423E+02</wgt>
<wgt id='6040'>0.82212E+02</wgt>
<wgt id='6041'>0.81038E+02</wgt>
<wgt id='6042'>0.83529E+02</wgt>
<wgt id='7000'>0.80534E+02</wgt>
<wgt id='7001'>0.80253E+02</wgt>
<wgt id='7002'>0.80399E+02</wgt>
<wgt id='7003'>0.80320E+02</wgt>
<wgt id='7004'>0.80332E+02</wgt>
<wgt id='7005'>0.80388E+02</wgt>
<wgt id='7006'>0.80264E+02</wgt>
<wgt id='7007'>0.80739E+02</wgt>
<wgt id='7008'>0.79924E+02</wgt>
<wgt id='7009'>0.79987E+02</wgt>
<wgt id='7010'>0.80676E+02</wgt>
<wgt id='7011'>0.80578E+02</wgt>
<wgt id='7012'>0.80081E+02</wgt>
<wgt id='7013'>0.80277E+02</wgt>
<wgt id='7014'>0.80371E+02</wgt>
<wgt id='7015'>0.80489E+02</wgt>
<wgt id='7016'>0.80021E+02</wgt>
<wgt id='7017'>0.80187E+02</wgt>
<wgt id='7018'>0.80473E+02</wgt>
<wgt id='7019'>0.80658E+02</wgt>
<wgt id='7020'>0.80010E+02</wgt>
<wgt id='7021'>0.81435E+02</wgt>
<wgt id='7022'>0.79257E+02</wgt>
<wgt id='7023'>0.79284E+02</wgt>
<wgt id='7024'>0.81377E+02</wgt>
<wgt id='7025'>0.78851E+02</wgt>
<wgt id='7026'>0.81743E+02</wgt>
<wgt id='7027'>0.79673E+02</wgt>
<wgt id='7028'>0.81052E+02</wgt>
<wgt id='8000'>0.81321E+02</wgt>
<wgt id='8001'>0.81312E+02</wgt>
<wgt id='8002'>0.81343E+02</wgt>
<wgt id='8003'>0.81321E+02</wgt>
<wgt id='8004'>0.81319E+02</wgt>
<wgt id='8005'>0.81181E+02</wgt>
<wgt id='8006'>0.81412E+02</wgt>
<wgt id='8007'>0.81478E+02</wgt>
<wgt id='8008'>0.81480E+02</wgt>
<wgt id='8009'>0.81631E+02</wgt>
<wgt id='8010'>0.81232E+02</wgt>
<wgt id='8011'>0.81352E+02</wgt>
<wgt id='8012'>0.81054E+02</wgt>
<wgt id='8013'>0.81161E+02</wgt>
<wgt id='8014'>0.81517E+02</wgt>
<wgt id='8015'>0.81270E+02</wgt>
<wgt id='8016'>0.81439E+02</wgt>
<wgt id='8017'>0.81431E+02</wgt>
<wgt id='8018'>0.81614E+02</wgt>
<wgt id='8019'>0.81155E+02</wgt>
<wgt id='8020'>0.81626E+02</wgt>
<wgt id='8021'>0.81161E+02</wgt>
<wgt id='8022'>0.81879E+02</wgt>
<wgt id='8023'>0.81022E+02</wgt>
<wgt id='8024'>0.80743E+02</wgt>
<wgt id='8025'>0.80880E+02</wgt>
<wgt id='8026'>0.81311E+02</wgt>
<wgt id='8027'>0.81478E+02</wgt>
<wgt id='8028'>0.81339E+02</wgt>
<wgt id='8029'>0.82885E+02</wgt>
<wgt id='3000'>0.81104E+02</wgt>
<wgt id='3001'>0.82683E+02</wgt>
<wgt id='3002'>0.80551E+02</wgt>
<wgt id='3003'>0.82090E+02</wgt>
<wgt id='3004'>0.81847E+02</wgt>
<wgt id='3005'>0.82165E+02</wgt>
<wgt id='3006'>0.81303E+02</wgt>
<wgt id='3007'>0.78967E+02</wgt>
<wgt id='3008'>0.78812E+02</wgt>
<wgt id='3009'>0.80412E+02</wgt>
<wgt id='3010'>0.85097E+02</wgt>
<wgt id='3011'>0.82333E+02</wgt>
<wgt id='3012'>0.79586E+02</wgt>
<wgt id='3013'>0.80629E+02</wgt>
<wgt id='3014'>0.80613E+02</wgt>
<wgt id='3015'>0.79376E+02</wgt>
<wgt id='3016'>0.80679E+02</wgt>
<wgt id='3017'>0.81350E+02</wgt>
<wgt id='3018'>0.79589E+02</wgt>
<wgt id='3019'>0.80117E+02</wgt>
<wgt id='3020'>0.80646E+02</wgt>
<wgt id='3021'>0.79729E+02</wgt>
<wgt id='3022'>0.79490E+02</wgt>
<wgt id='3023'>0.79811E+02</wgt>
<wgt id='3024'>0.81123E+02</wgt>
<wgt id='3025'>0.79450E+02</wgt>
<wgt id='3026'>0.80542E+02</wgt>
<wgt id='3027'>0.82780E+02</wgt>
<wgt id='3028'>0.78623E+02</wgt>
<wgt id='3029'>0.81144E+02</wgt>
<wgt id='3030'>0.80326E+02</wgt>
<wgt id='3031'>0.82851E+02</wgt>
<wgt id='3032'>0.79523E+02</wgt>
<wgt id='3033'>0.79659E+02</wgt>
<wgt id='3034'>0.81893E+02</wgt>
<wgt id='3035'>0.83316E+02</wgt>
<wgt id='3036'>0.81373E+02</wgt>
<wgt id='3037'>0.80529E+02</wgt>
<wgt id='3038'>0.81582E+02</wgt>
<wgt id='3039'>0.80423E+02</wgt>
<wgt id='3040'>0.80575E+02</wgt>
<wgt id='3041'>0.81440E+02</wgt>
<wgt id='3042'>0.81170E+02</wgt>
<wgt id='3043'>0.82399E+02</wgt>
<wgt id='3044'>0.82071E+02</wgt>
<wgt id='3045'>0.81294E+02</wgt>
<wgt id='3046'>0.81044E+02</wgt>
<wgt id='3047'>0.81828E+02</wgt>
<wgt id='3048'>0.82495E+02</wgt>
<wgt id='3049'>0.81435E+02</wgt>
<wgt id='3050'>0.83023E+02</wgt>
<wgt id='3051'>0.80393E+02</wgt>
<wgt id='3052'>0.79924E+02</wgt>
<wgt id='3053'>0.82562E+02</wgt>
<wgt id='3054'>0.79479E+02</wgt>
<wgt id='3055'>0.81331E+02</wgt>
<wgt id='3056'>0.80681E+02</wgt>
<wgt id='3057'>0.80073E+02</wgt>
<wgt id='3058'>0.82658E+02</wgt>
<wgt id='3059'>0.79595E+02</wgt>
<wgt id='3060'>0.80635E+02</wgt>
<wgt id='3061'>0.80584E+02</wgt>
<wgt id='3062'>0.81817E+02</wgt>
<wgt id='3063'>0.81755E+02</wgt>
<wgt id='3064'>0.82628E+02</wgt>
<wgt id='3065'>0.79316E+02</wgt>
<wgt id='3066'>0.81994E+02</wgt>
<wgt id='3067'>0.80415E+02</wgt>
<wgt id='3068'>0.80056E+02</wgt>
<wgt id='3069'>0.80520E+02</wgt>
<wgt id='3070'>0.82275E+02</wgt>
<wgt id='3071'>0.81186E+02</wgt>
<wgt id='3072'>0.81722E+02</wgt>
<wgt id='3073'>0.80600E+02</wgt>
<wgt id='3074'>0.80266E+02</wgt>
<wgt id='3075'>0.81456E+02</wgt>
<wgt id='3076'>0.83114E+02</wgt>
<wgt id='3077'>0.82153E+02</wgt>
<wgt id='3078'>0.80194E+02</wgt>
<wgt id='3079'>0.81256E+02</wgt>
<wgt id='3080'>0.84057E+02</wgt>
<wgt id='3081'>0.82078E+02</wgt>
<wgt id='3082'>0.80679E+02</wgt>
<wgt id='3083'>0.81266E+02</wgt>
<wgt id='3084'>0.79985E+02</wgt>
<wgt id='3085'>0.81133E+02</wgt>
<wgt id='3086'>0.82809E+02</wgt>
<wgt id='3087'>0.80227E+02</wgt>
<wgt id='3088'>0.81362E+02</wgt>
<wgt id='3089'>0.82553E+02</wgt>
<wgt id='3090'>0.80366E+02</wgt>
<wgt id='3091'>0.80331E+02</wgt>
<wgt id='3092'>0.81751E+02</wgt>
<wgt id='3093'>0.81137E+02</wgt>
<wgt id='3094'>0.81784E+02</wgt>
<wgt id='3095'>0.79346E+02</wgt>
<wgt id='3096'>0.80618E+02</wgt>
<wgt id='3097'>0.85102E+02</wgt>
<wgt id='3098'>0.81036E+02</wgt>
<wgt id='3099'>0.79479E+02</wgt>
<wgt id='3100'>0.80410E+02</wgt>
<wgt id='3200'>0.79426E+02</wgt>
<wgt id='3201'>0.78821E+02</wgt>
<wgt id='3202'>0.77655E+02</wgt>
<wgt id='3203'>0.79922E+02</wgt>
<wgt id='3204'>0.79200E+02</wgt>
<wgt id='3205'>0.79679E+02</wgt>
<wgt id='3206'>0.80575E+02</wgt>
<wgt id='3207'>0.80082E+02</wgt>
<wgt id='3208'>0.79489E+02</wgt>
<wgt id='3209'>0.79384E+02</wgt>
<wgt id='3210'>0.79558E+02</wgt>
<wgt id='3211'>0.79437E+02</wgt>
<wgt id='3212'>0.79594E+02</wgt>
<wgt id='3213'>0.80159E+02</wgt>
<wgt id='3214'>0.79081E+02</wgt>
<wgt id='3215'>0.79337E+02</wgt>
<wgt id='3216'>0.79962E+02</wgt>
<wgt id='3217'>0.79915E+02</wgt>
<wgt id='3218'>0.80599E+02</wgt>
<wgt id='3219'>0.79163E+02</wgt>
<wgt id='3220'>0.78549E+02</wgt>
<wgt id='3221'>0.79238E+02</wgt>
<wgt id='3222'>0.80062E+02</wgt>
<wgt id='3223'>0.80031E+02</wgt>
<wgt id='3224'>0.79198E+02</wgt>
<wgt id='3225'>0.80168E+02</wgt>
<wgt id='3226'>0.78607E+02</wgt>
<wgt id='3227'>0.78602E+02</wgt>
<wgt id='3228'>0.79139E+02</wgt>
<wgt id='3229'>0.80403E+02</wgt>
<wgt id='3230'>0.79560E+02</wgt>
<wgt id='3231'>0.79651E+02</wgt>
<wgt id='3232'>0.79680E+02</wgt>
<wgt id='3233'>0.79415E+02</wgt>
<wgt id='3234'>0.78093E+02</wgt>
<wgt id='3235'>0.79428E+02</wgt>
<wgt id='3236'>0.80072E+02</wgt>
<wgt id='3237'>0.79689E+02</wgt>
<wgt id='3238'>0.79031E+02</wgt>
<wgt id='3239'>0.78738E+02</wgt>
<wgt id='3240'>0.78031E+02</wgt>
<wgt id='3241'>0.80108E+02</wgt>
<wgt id='3242'>0.79723E+02</wgt>
<wgt id='3243'>0.80252E+02</wgt>
<wgt id='3244'>0.80077E+02</wgt>
<wgt id='3245'>0.80053E+02</wgt>
<wgt id='3246'>0.77988E+02</wgt>
<wgt id='3247'>0.78137E+02</wgt>
<wgt id='3248'>0.79239E+02</wgt>
<wgt id='3249'>0.78473E+02</wgt>
<wgt id='3250'>0.79126E+02</wgt>
<wgt id='3251'>0.78966E+02</wgt>
<wgt id='3252'>0.80445E+02</wgt>
<wgt id='3253'>0.79979E+02</wgt>
<wgt id='3254'>0.79253E+02</wgt>
<wgt id='3255'>0.78197E+02</wgt>
<wgt id='3256'>0.79379E+02</wgt>
<wgt id='3257'>0.79199E+02</wgt>
<wgt id='3258'>0.78500E+02</wgt>
<wgt id='3259'>0.78221E+02</wgt>
<wgt id='3260'>0.79468E+02</wgt>
<wgt id='3261'>0.78425E+02</wgt>
<wgt id='3262'>0.80755E+02</wgt>
<wgt id='3263'>0.79756E+02</wgt>
<wgt id='3264'>0.79835E+02</wgt>
<wgt id='3265'>0.80217E+02</wgt>
<wgt id='3266'>0.79689E+02</wgt>
<wgt id='3267'>0.79586E+02</wgt>
<wgt id='3268'>0.78305E+02</wgt>
<wgt id='3269'>0.79060E+02</wgt>
<wgt id='3270'>0.81140E+02</wgt>
<wgt id='3271'>0.79299E+02</wgt>
<wgt id='3272'>0.79450E+02</wgt>
<wgt id='3273'>0.79543E+02</wgt>
<wgt id='3274'>0.78988E+02</wgt>
<wgt id='3275'>0.80337E+02</wgt>
<wgt id='3276'>0.78628E+02</wgt>
<wgt id='3277'>0.79432E+02</wgt>
<wgt id='3278'>0.80360E+02</wgt>
<wgt id='3279'>0.79632E+02</wgt>
<wgt id='3280'>0.79276E+02</wgt>
<wgt id='3281'>0.80172E+02</wgt>
<wgt id='3282'>0.79510E+02</wgt>
<wgt id='3283'>0.79850E+02</wgt>
<wgt id='3284'>0.78526E+02</wgt>
<wgt id='3285'>0.79699E+02</wgt>
<wgt id='3286'>0.78329E+02</wgt>
<wgt id='3287'>0.81483E+02</wgt>
<wgt id='3288'>0.78445E+02</wgt>
<wgt id='3289'>0.80305E+02</wgt>
<wgt id='3290'>0.78262E+02</wgt>
<wgt id='3291'>0.79008E+02</wgt>
<wgt id='3292'>0.79270E+02</wgt>
<wgt id='3293'>0.79251E+02</wgt>
<wgt id='3294'>0.79750E+02</wgt>
<wgt id='3295'>0.79209E+02</wgt>
<wgt id='3296'>0.79820E+02</wgt>
<wgt id='3297'>0.79797E+02</wgt>
<wgt id='3298'>0.78148E+02</wgt>
<wgt id='3299'>0.79961E+02</wgt>
<wgt id='3300'>0.80248E+02</wgt>
<wgt id='3301'>0.77913E+02</wgt>
<wgt id='3302'>0.80360E+02</wgt>
<wgt id='3400'>0.78636E+02</wgt>
<wgt id='3401'>0.79129E+02</wgt>
<wgt id='3402'>0.77002E+02</wgt>
<wgt id='3403'>0.79345E+02</wgt>
<wgt id='3404'>0.79817E+02</wgt>
<wgt id='3405'>0.79112E+02</wgt>
<wgt id='3406'>0.79801E+02</wgt>
<wgt id='3407'>0.78577E+02</wgt>
<wgt id='3408'>0.79005E+02</wgt>
<wgt id='3409'>0.78689E+02</wgt>
<wgt id='3410'>0.79353E+02</wgt>
<wgt id='3411'>0.79963E+02</wgt>
<wgt id='3412'>0.79255E+02</wgt>
<wgt id='3413'>0.78291E+02</wgt>
<wgt id='3414'>0.78306E+02</wgt>
<wgt id='3415'>0.78744E+02</wgt>
<wgt id='3416'>0.78345E+02</wgt>
<wgt id='3417'>0.79294E+02</wgt>
<wgt id='3418'>0.78072E+02</wgt>
<wgt id='3419'>0.78172E+02</wgt>
<wgt id='3420'>0.78283E+02</wgt>
<wgt id='3421'>0.78008E+02</wgt>
<wgt id='3422'>0.78079E+02</wgt>
<wgt id='3423'>0.80086E+02</wgt>
<wgt id='3424'>0.78955E+02</wgt>
<wgt id='3425'>0.77853E+02</wgt>
<wgt id='3426'>0.77966E+02</wgt>
<wgt id='3427'>0.77457E+02</wgt>
<wgt id='3428'>0.78648E+02</wgt>
<wgt id='3429'>0.77746E+02</wgt>
<wgt id='3430'>0.78171E+02</wgt>
<wgt id='3431'>0.79056E+02</wgt>
<wgt id='3432'>0.79698E+02</wgt>
<wgt id='3433'>0.78528E+02</wgt>
<wgt id='3434'>0.79938E+02</wgt>
<wgt id='3435'>0.79702E+02</wgt>
<wgt id='3436'>0.78553E+02</wgt>
<wgt id='3437'>0.80007E+02</wgt>
<wgt id='3438'>0.78114E+02</wgt>
<wgt id='3439'>0.76856E+02</wgt>
<wgt id='3440'>0.79046E+02</wgt>
<wgt id='3441'>0.78951E+02</wgt>
<wgt id='3442'>0.78372E+02</wgt>
<wgt id='3443'>0.79462E+02</wgt>
<wgt id='3444'>0.77804E+02</wgt>
<wgt id='3445'>0.77948E+02</wgt>
<wgt id='3446'>0.79038E+02</wgt>
<wgt id='3447'>0.78473E+02</wgt>
<wgt id='3448'>0.80044E+02</wgt>
<wgt id='3449'>0.78851E+02</wgt>
<wgt id='3450'>0.77947E+02</wgt>
<wgt id='3451'>0.79294E+02</wgt>
<wgt id='3452'>0.78129E+02</wgt>
<wgt id='3453'>0.77143E+02</wgt>
<wgt id='3454'>0.78701E+02</wgt>
<wgt id='3455'>0.79284E+02</wgt>
<wgt id='3456'>0.78839E+02</wgt>
<wgt id='3457'>0.78632E+02</wgt>
<wgt id='3458'>0.78020E+02</wgt>
<wgt id='3459'>0.78746E+02</wgt>
<wgt id='3460'>0.78451E+02</wgt>
<wgt id='3461'>0.77851E+02</wgt>
<wgt id='3462'>0.78956E+02</wgt>
<wgt id='3463'>0.77736E+02</wgt>
<wgt id='3464'>0.78535E+02</wgt>
<wgt id='3465'>0.79265E+02</wgt>
<wgt id='3466'>0.79450E+02</wgt>
<wgt id='3467'>0.78336E+02</wgt>
<wgt id='3468'>0.78050E+02</wgt>
<wgt id='3469'>0.77418E+02</wgt>
<wgt id='3470'>0.77989E+02</wgt>
<wgt id='3471'>0.77963E+02</wgt>
<wgt id='3472'>0.76941E+02</wgt>
<wgt id='3473'>0.80395E+02</wgt>
<wgt id='3474'>0.77851E+02</wgt>
<wgt id='3475'>0.79115E+02</wgt>
<wgt id='3476'>0.78471E+02</wgt>
<wgt id='3477'>0.77539E+02</wgt>
<wgt id='3478'>0.79694E+02</wgt>
<wgt id='3479'>0.78258E+02</wgt>
<wgt id='3480'>0.79258E+02</wgt>
<wgt id='3481'>0.79596E+02</wgt>
<wgt id='3482'>0.78936E+02</wgt>
<wgt id='3483'>0.78646E+02</wgt>
<wgt id='3484'>0.77923E+02</wgt>
<wgt id='3485'>0.77934E+02</wgt>
<wgt id='3486'>0.76697E+02</wgt>
<wgt id='3487'>0.77596E+02</wgt>
<wgt id='3488'>0.78403E+02</wgt>
<wgt id='3489'>0.77617E+02</wgt>
<wgt id='3490'>0.79433E+02</wgt>
<wgt id='3491'>0.80440E+02</wgt>
<wgt id='3492'>0.78182E+02</wgt>
<wgt id='3493'>0.80327E+02</wgt>
<wgt id='3494'>0.77034E+02</wgt>
<wgt id='3495'>0.79812E+02</wgt>
<wgt id='3496'>0.77693E+02</wgt>
<wgt id='3497'>0.78429E+02</wgt>
<wgt id='3498'>0.79980E+02</wgt>
<wgt id='3499'>0.78327E+02</wgt>
<wgt id='3500'>0.80350E+02</wgt>
</rwgt>
</event>
<event>
     13 322200  8.11039E+01  1.23240E+03 -1.00000E+00  8.80545E-02
      21    -1     0     0   512   513  0.000000000E+00  0.000000000E+00  2.374961395E+03  2.374961395E+03  0.000000000E+00  0.00000E+00  9.000E+00
       2    -1     0     0   502     0  0.000000000E+00  0.000000000E+00 -1.174299143E+03  1.174299143E+03  0.000000000E+00  0.00000E+00  9.000E+00
       6     2     1     2   502     0  6.186658141E+01 -4.042249512E+01  1.084462548E+03  1.095455859E+03  1.360259868E+02  0.00000E+00  9.000E+00
      -6     2     1     2     0   513  9.525661685E+02  7.402254550E+02  4.454449874E+01  1.219328069E+03  1.716411902E+02  0.00000E+00  9.000E+00
       2     1     1     2   512     0 -1.014432750E+03 -6.998029599E+02  7.165520489E+01  1.234476609E+03  2.100000000E-01  0.00000E+00  9.000E+00
      24     2     3     3     0     0  4.619530521E+01 -6.893276540E+01  9.042981278E+02  9.123077050E+02  8.754720075E+01  0.00000E+00  9.000E+00
       5     1     3     3   502     0  1.567127620E+01  2.851027028E+01  1.801644202E+02  1.831481540E+02  5.060000000E+00  0.00000E+00 -1.000E+00
     -24     2     4     4     0     0  2.799531992E+02  2.609326256E+02  3.946163145E+01  3.933854186E+02  8.206849806E+01  0.00000E+00  9.000E+00
      -5     1     4     4     0   513  6.726129694E+02  4.792928294E+02  5.082867289E+00  8.259426506E+02  5.060000000E+00  0.00000E+00  1.000E+00
     -11     1     6     6     0     0  4.988939382E+01  1.639217410E+00  3.628910045E+02  3.663079576E+02  5.100000000E-04  0.00000E+00  1.000E+00
      12     1     6     6     0     0 -3.694088610E+00 -7.057198281E+01  5.414071233E+02  5.459997475E+02  0.000000000E+00  0.00000E+00 -1.000E+00
      15     1     8     8     0     0  1.416010409E+02  1.438101715E+02  6.098286643E+01  2.108418552E+02  1.777000000E+00  0.00000E+00 -1.000E+00
     -16     1     8     8     0     0  1.383521583E+02  1.171224542E+02 -2.152123498E+01  1.825435633E+02  0.000000000E+00  0.00000E+00  1.000E+00
#rwgt            2          35   5.7090393842348188               10        1904           0
<rwgt>
<wgt id='1001'>0.81104E+02</wgt>
<wgt id='1002'>0.69231E+02</wgt>
<wgt id='1003'>0.96296E+02</wgt>
<wgt id='1004'>0.64115E+02</wgt>
<wgt id='1005'>0.54729E+02</wgt>
<wgt id='1006'>0.76125E+02</wgt>
<wgt id='1007'>0.10476E+03</wgt>
<wgt id='1008'>0.89423E+02</wgt>
<wgt id='1009'>0.12438E+03</wgt>
<wgt id='2000'>0.81104E+02</wgt>
<wgt id='2001'>0.81079E+02</wgt>
<wgt id='2002'>0.80743E+02</wgt>
<wgt id='2003'>0.81284E+02</wgt>
<wgt id='2004'>0.80836E+02</wgt>
<wgt id='2005'>0.80964E+02</wgt>
<wgt id='2006'>0.81787E+02</wgt>
<wgt id='2007'>0.80594E+02</wgt>
<wgt id='2008'>0.80252E+02</wgt>
<wgt id='2009'>0.81097E+02</wgt>
<wgt id='2010'>0.81341E+02</wgt>
<wgt id='2011'>0.81856E+02</wgt>
<wgt id='2012'>0.80496E+02</wgt>
<wgt id='2013'>0.81347E+02</wgt>
<wgt id='2014'>0.81718E+02</wgt>
<wgt id='2015'>0.81243E+02</wgt>
<wgt id='2016'>0.81856E+02</wgt>
<wgt id='2017'>0.81656E+02</wgt>
<wgt id='2018'>0.80964E+02</wgt>
<wgt id='2019'>0.80529E+02</wgt>
<wgt id='2020'>0.81385E+02</wgt>
<wgt id='2021'>0.80754E+02</wgt>
<wgt id='2022'>0.80639E+02</wgt>
<wgt id='2023'>0.81953E+02</wgt>
<wgt id='2024'>0.79654E+02</wgt>
<wgt id='2025'>0.81531E+02</wgt>
<wgt id='2026'>0.81510E+02</wgt>
<wgt id='2027'>0.80186E+02</wgt>
<wgt id='2028'>0.81696E+02</wgt>
<wgt id='2029'>0.80438E+02</wgt>
<wgt id='2030'>0.79808E+02</wgt>
<wgt id='2031'>0.81993E+02</wgt>
<wgt id='2032'>0.81548E+02</wgt>
<wgt id='2033'>0.81239E+02</wgt>
<wgt id='2034'>0.81085E+02</wgt>
<wgt id='2035'>0.81126E+02</wgt>
<wgt id='2036'>0.81099E+02</wgt>
<wgt id='2037'>0.81014E+02</wgt>
<wgt id='2038'>0.81791E+02</wgt>
<wgt id='2039'>0.81485E+02</wgt>
<wgt id='2040'>0.81208E+02</wgt>
<wgt id='2041'>0.81022E+02</wgt>
<wgt id='2042'>0.81468E+02</wgt>
<wgt id='2043'>0.81237E+02</wgt>
<wgt id='2044'>0.80798E+02</wgt>
<wgt id='2045'>0.80919E+02</wgt>
<wgt id='2046'>0.80309E+02</wgt>
<wgt id='2047'>0.81066E+02</wgt>
<wgt id='2048'>0.81115E+02</wgt>
<wgt id='2049'>0.80908E+02</wgt>
<wgt id='2050'>0.81143E+02</wgt>
<wgt id='2051'>0.81233E+02</wgt>
<wgt id='2052'>0.81108E+02</wgt>
<wgt id='2053'>0.81176E+02</wgt>
<wgt id='2054'>0.81178E+02</wgt>
<wgt id='2055'>0.80457E+02</wgt>
<wgt id='2056'>0.81368E+02</wgt>
<wgt id='2057'>0.81253E+02</wgt>
<wgt id='2058'>0.81291E+02</wgt>
<wgt id='2059'>0.81438E+02</wgt>
<wgt id='2060'>0.81028E+02</wgt>
<wgt id='2061'>0.81296E+02</wgt>
<wgt id='2062'>0.80970E+02</wgt>
<wgt id='2063'>0.81501E+02</wgt>
<wgt id='2064'>0.80942E+02</wgt>
<wgt id='2065'>0.81154E+02</wgt>
<wgt id='2066'>0.80887E+02</wgt>
<wgt id='2067'>0.80564E+02</wgt>
<wgt id='2068'>0.81544E+02</wgt>
<wgt id='2069'>0.81013E+02</wgt>
<wgt id='2070'>0.81392E+02</wgt>
<wgt id='2071'>0.80750E+02</wgt>
<wgt id='2072'>0.80622E+02</wgt>
<wgt id='2073'>0.81069E+02</wgt>
<wgt id='2074'>0.80772E+02</wgt>
<wgt id='2075'>0.81118E+02</wgt>
<wgt id='2076'>0.81309E+02</wgt>
<wgt id='2077'>0.81119E+02</wgt>
<wgt id='2078'>0.81173E+02</wgt>
<wgt id='2079'>0.81215E+02</wgt>
<wgt id='2080'>0.81028E+02</wgt>
<wgt id='2081'>0.80940E+02</wgt>
<wgt id='2082'>0.81139E+02</wgt>
<wgt id='2083'>0.81544E+02</wgt>
<wgt id='2084'>0.81019E+02</wgt>
<wgt id='2085'>0.81242E+02</wgt>
<wgt id='2086'>0.81040E+02</wgt>
<wgt id='2087'>0.81164E+02</wgt>
<wgt id='2088'>0.80970E+02</wgt>
<wgt id='2089'>0.80952E+02</wgt>
<wgt id='2090'>0.81196E+02</wgt>
<wgt id='2091'>0.81227E+02</wgt>
<wgt id='2092'>0.81300E+02</wgt>
<wgt id='2093'>0.80941E+02</wgt>
<wgt id='2094'>0.81127E+02</wgt>
<wgt id='2095'>0.81289E+02</wgt>
<wgt id='2096'>0.81082E+02</wgt>
<wgt id='2097'>0.81196E+02</wgt>
<wgt id='2098'>0.81198E+02</wgt>
<wgt id='2099'>0.81171E+02</wgt>
<wgt id='2100'>0.81104E+02</wgt>
<wgt id='2101'>0.77042E+02</wgt>
<wgt id='2102'>0.86677E+02</wgt>
<wgt id='2200'>0.81369E+02</wgt>
<wgt id='2201'>0.61852E+02</wgt>
<wgt id='2202'>0.66166E+02</wgt>
<wgt id='2203'>0.68928E+02</wgt>
<wgt id='2204'>0.72912E+02</wgt>
<wgt id='2205'>0.79245E+02</wgt>
<wgt id='2206'>0.83243E+02</wgt>
<wgt id='2207'>0.91289E+02</wgt>
<wgt id='2208'>0.95909E+02</wgt>
<wgt id='2300'>0.87898E+02</wgt>
<wgt id='2301'>0.87791E+02</wgt>
<wgt id='2302'>0.87508E+02</wgt>
<wgt id='2303'>0.87536E+02</wgt>
<wgt id='2304'>0.87870E+02</wgt>
<wgt id='2305'>0.87626E+02</wgt>
<wgt id='2306'>0.87921E+02</wgt>
<wgt id='2307'>0.88238E+02</wgt>
<wgt id='2308'>0.88227E+02</wgt>
<wgt id='2309'>0.88498E+02</wgt>
<wgt id='2310'>0.88228E+02</wgt>
<wgt id='2311'>0.87307E+02</wgt>
<wgt id='2312'>0.87163E+02</wgt>
<wgt id='2313'>0.88733E+02</wgt>
<wgt id='2314'>0.87562E+02</wgt>
<wgt id='2315'>0.87459E+02</wgt>
<wgt id='2316'>0.87373E+02</wgt>
<wgt id='2317'>0.87481E+02</wgt>
<wgt id='2318'>0.87770E+02</wgt>
<wgt id='2319'>0.88688E+02</wgt>
<wgt id='2320'>0.88400E+02</wgt>
<wgt id='2321'>0.88511E+02</wgt>
<wgt id='2322'>0.88210E+02</wgt>
<wgt id='2323'>0.88522E+02</wgt>
<wgt id='2324'>0.87799E+02</wgt>
<wgt id='2325'>0.88035E+02</wgt>
<wgt id='2326'>0.87668E+02</wgt>
<wgt id='2327'>0.87827E+02</wgt>
<wgt id='2328'>0.88079E+02</wgt>
<wgt id='2329'>0.86800E+02</wgt>
<wgt id='2330'>0.88315E+02</wgt>
<wgt id='2331'>0.88234E+02</wgt>
<wgt id='2332'>0.88129E+02</wgt>
<wgt id='2333'>0.87985E+02</wgt>
<wgt id='2334'>0.87706E+02</wgt>
<wgt id='2335'>0.89021E+02</wgt>
<wgt id='2336'>0.88256E+02</wgt>
<wgt id='2337'>0.87486E+02</wgt>
<wgt id='2338'>0.88315E+02</wgt>
<wgt id='2339'>0.88636E+02</wgt>
<wgt id='2340'>0.87533E+02</wgt>
<wgt id='2341'>0.88018E+02</wgt>
<wgt id='2342'>0.87509E+02</wgt>
<wgt id='2343'>0.87243E+02</wgt>
<wgt id='2344'>0.87845E+02</wgt>
<wgt id='2345'>0.88185E+02</wgt>
<wgt id='2346'>0.86642E+02</wgt>
<wgt id='2347'>0.87472E+02</wgt>
<wgt id='2348'>0.88217E+02</wgt>
<wgt id='2349'>0.87595E+02</wgt>
<wgt id='2350'>0.89583E+02</wgt>
<wgt id='2351'>0.86650E+02</wgt>
<wgt id='2352'>0.88123E+02</wgt>
<wgt id='2353'>0.88217E+02</wgt>
<wgt id='2354'>0.87848E+02</wgt>
<wgt id='2355'>0.87499E+02</wgt>
<wgt id='2356'>0.87072E+02</wgt>
<wgt id='2357'>0.87784E+02</wgt>
<wgt id='2358'>0.87969E+02</wgt>
<wgt id='2359'>0.87724E+02</wgt>
<wgt id='2360'>0.88707E+02</wgt>
<wgt id='2361'>0.87454E+02</wgt>
<wgt id='2362'>0.88045E+02</wgt>
<wgt id='2363'>0.86763E+02</wgt>
<wgt id='2364'>0.88568E+02</wgt>
<wgt id='2365'>0.87249E+02</wgt>
<wgt id='2366'>0.88330E+02</wgt>
<wgt id='2367'>0.87659E+02</wgt>
<wgt id='2368'>0.87966E+02</wgt>
<wgt id='2369'>0.87597E+02</wgt>
<wgt id='2370'>0.87562E+02</wgt>
<wgt id='2371'>0.87907E+02</wgt>
<wgt id='2372'>0.87886E+02</wgt>
<wgt id='2373'>0.88000E+02</wgt>
<wgt id='2374'>0.88690E+02</wgt>
<wgt id='2375'>0.88235E+02</wgt>
<wgt id='2376'>0.88519E+02</wgt>
<wgt id='2377'>0.88019E+02</wgt>
<wgt id='2378'>0.88120E+02</wgt>
<wgt id='2379'>0.87045E+02</wgt>
<wgt id='2380'>0.87643E+02</wgt>
<wgt id='2381'>0.87576E+02</wgt>
<wgt id='2382'>0.87189E+02</wgt>
<wgt id='2383'>0.88044E+02</wgt>
<wgt id='2384'>0.87506E+02</wgt>
<wgt id='2385'>0.88299E+02</wgt>
<wgt id='2386'>0.87528E+02</wgt>
<wgt id='2387'>0.87151E+02</wgt>
<wgt id='2388'>0.87518E+02</wgt>
<wgt id='2389'>0.87808E+02</wgt>
<wgt id='2390'>0.87800E+02</wgt>
<wgt id='2391'>0.87547E+02</wgt>
<wgt id='2392'>0.88112E+02</wgt>
<wgt id='2393'>0.88130E+02</wgt>
<wgt id='2394'>0.88130E+02</wgt>
<wgt id='2395'>0.88071E+02</wgt>
<wgt id='2396'>0.87726E+02</wgt>
<wgt id='2397'>0.87855E+02</wgt>
<wgt id='2398'>0.88008E+02</wgt>
<wgt id='2399'>0.88080E+02</wgt>
<wgt id='2400'>0.88085E+02</wgt>
<wgt id='2401'>0.82843E+02</wgt>
<wgt id='2402'>0.92086E+02</wgt>
<wgt id='2500'>0.89070E+02</wgt>
<wgt id='2501'>0.94848E+02</wgt>
<wgt id='2600'>0.81805E+02</wgt>
<wgt id='2601'>0.82286E+02</wgt>
<wgt id='2602'>0.81090E+02</wgt>
<wgt id='2603'>0.81564E+02</wgt>
<wgt id='2604'>0.81127E+02</wgt>
<wgt id='2605'>0.81818E+02</wgt>
<wgt id='2606'>0.81997E+02</wgt>
<wgt id='2607'>0.81410E+02</wgt>
<wgt id='2608'>0.81890E+02</wgt>
<wgt id='2609'>0.81348E+02</wgt>
<wgt id='2610'>0.81586E+02</wgt>
<wgt id='2611'>0.81874E+02</wgt>
<wgt id='2612'>0.81556E+02</wgt>
<wgt id='2613'>0.81857E+02</wgt>
<wgt id='2614'>0.81623E+02</wgt>
<wgt id='2615'>0.81301E+02</wgt>
<wgt id='2616'>0.81705E+02</wgt>
<wgt id='2617'>0.81586E+02</wgt>
<wgt id='2618'>0.81966E+02</wgt>
<wgt id='2619'>0.81604E+02</wgt>
<wgt id='2620'>0.81690E+02</wgt>
<wgt id='2621'>0.82121E+02</wgt>
<wgt id='2622'>0.82263E+02</wgt>
<wgt id='2623'>0.81804E+02</wgt>
<wgt id='2624'>0.81510E+02</wgt>
<wgt id='2625'>0.81831E+02</wgt>
<wgt id='2626'>0.82176E+02</wgt>
<wgt id='2627'>0.81919E+02</wgt>
<wgt id='2628'>0.81892E+02</wgt>
<wgt id='2629'>0.81907E+02</wgt>
<wgt id='2630'>0.81775E+02</wgt>
<wgt id='2631'>0.82414E+02</wgt>
<wgt id='2632'>0.81230E+02</wgt>
<wgt id='2633'>0.81932E+02</wgt>
<wgt id='2634'>0.82969E+02</wgt>
<wgt id='2635'>0.81830E+02</wgt>
<wgt id='2636'>0.81271E+02</wgt>
<wgt id='2637'>0.81804E+02</wgt>
<wgt id='2638'>0.82902E+02</wgt>
<wgt id='2639'>0.81495E+02</wgt>
<wgt id='2640'>0.82344E+02</wgt>
<wgt id='2641'>0.82776E+02</wgt>
<wgt id='2642'>0.82145E+02</wgt>
<wgt id='2643'>0.82164E+02</wgt>
<wgt id='2644'>0.81599E+02</wgt>
<wgt id='2645'>0.81852E+02</wgt>
<wgt id='2646'>0.82569E+02</wgt>
<wgt id='2647'>0.81696E+02</wgt>
<wgt id='2648'>0.81274E+02</wgt>
<wgt id='2649'>0.81622E+02</wgt>
<wgt id='2650'>0.81722E+02</wgt>
<wgt id='2651'>0.78600E+02</wgt>
<wgt id='2652'>0.85014E+02</wgt>
<wgt id='2700'>0.75322E+02</wgt>
<wgt id='2701'>0.78600E+02</wgt>
<wgt id='2702'>0.79725E+02</wgt>
<wgt id='2703'>0.83428E+02</wgt>
<wgt id='2704'>0.85014E+02</wgt>
<wgt id='2705'>0.88008E+02</wgt>
<wgt id='2800'>0.90881E+02</wgt>
<wgt id='4000'>0.10027E+03</wgt>
<wgt id='4001'>0.10019E+03</wgt>
<wgt id='4002'>0.10306E+03</wgt>
<wgt id='4003'>0.92345E+02</wgt>
<wgt id='4004'>0.11293E+03</wgt>
<wgt id='4005'>0.99773E+02</wgt>
<wgt id='4006'>0.10083E+03</wgt>
<wgt id='4007'>0.95454E+02</wgt>
<wgt id='4008'>0.10549E+03</wgt>
<wgt id='4009'>0.10246E+03</wgt>
<wgt id='4010'>0.98052E+02</wgt>
<wgt id='4011'>0.98826E+02</wgt>
<wgt id='4012'>0.10147E+03</wgt>
<wgt id='4013'>0.99134E+02</wgt>
<wgt id='4014'>0.10215E+03</wgt>
<wgt id='4015'>0.10031E+03</wgt>
<wgt id='4016'>0.10394E+03</wgt>
<wgt id='4017'>0.10165E+03</wgt>
<wgt id='4018'>0.98915E+02</wgt>
<wgt id='4019'>0.96612E+02</wgt>
<wgt id='4020'>0.10731E+03</wgt>
<wgt id='4021'>0.10218E+03</wgt>
<wgt id='4022'>0.97273E+02</wgt>
<wgt id='4023'>0.10549E+03</wgt>
<wgt id='4024'>0.96043E+02</wgt>
<wgt id='4025'>0.10026E+03</wgt>
<wgt id='4026'>0.10010E+03</wgt>
<wgt id='4027'>0.10672E+03</wgt>
<wgt id='4028'>0.95572E+02</wgt>
<wgt id='4029'>0.10639E+03</wgt>
<wgt id='4030'>0.99196E+02</wgt>
<wgt id='4031'>0.99098E+02</wgt>
<wgt id='4032'>0.10870E+03</wgt>
<wgt id='4033'>0.10354E+03</wgt>
<wgt id='4034'>0.98538E+02</wgt>
<wgt id='4035'>0.97727E+02</wgt>
<wgt id='4036'>0.10259E+03</wgt>
<wgt id='4037'>0.10162E+03</wgt>
<wgt id='4038'>0.98724E+02</wgt>
<wgt id='4039'>0.10345E+03</wgt>
<wgt id='4040'>0.98058E+02</wgt>
<wgt id='4041'>0.10139E+03</wgt>
<wgt id='4042'>0.99617E+02</wgt>
<wgt id='4043'>0.98783E+02</wgt>
<wgt id='4044'>0.10316E+03</wgt>
<wgt id='4045'>0.93859E+02</wgt>
<wgt id='4046'>0.10430E+03</wgt>
<wgt id='4047'>0.10760E+03</wgt>
<wgt id='4048'>0.98386E+02</wgt>
<wgt id='4049'>0.99921E+02</wgt>
<wgt id='4050'>0.10145E+03</wgt>
<wgt id='4051'>0.97981E+02</wgt>
<wgt id='4052'>0.10265E+03</wgt>
<wgt id='4053'>0.10240E+03</wgt>
<wgt id='4054'>0.98841E+02</wgt>
<wgt id='4055'>0.10170E+03</wgt>
<wgt id='4056'>0.98917E+02</wgt>
<wgt id='4057'>0.99650E+02</wgt>
<wgt id='4058'>0.10060E+03</wgt>
<wgt id='4100'>0.94735E+02</wgt>
<wgt id='4101'>0.97345E+02</wgt>
<wgt id='4102'>0.10335E+03</wgt>
<wgt id='4103'>0.10645E+03</wgt>
<wgt id='4200'>0.10109E+03</wgt>
<wgt id='4201'>0.10213E+03</wgt>
<wgt id='4202'>0.10191E+03</wgt>
<wgt id='4203'>0.10176E+03</wgt>
<wgt id='4204'>0.10031E+03</wgt>
<wgt id='4205'>0.10119E+03</wgt>
<wgt id='4206'>0.10123E+03</wgt>
<wgt id='4207'>0.10250E+03</wgt>
<wgt id='4208'>0.10137E+03</wgt>
<wgt id='4209'>0.10104E+03</wgt>
<wgt id='4210'>0.10134E+03</wgt>
<wgt id='4211'>0.99139E+02</wgt>
<wgt id='4212'>0.10273E+03</wgt>
<wgt id='4213'>0.99972E+02</wgt>
<wgt id='4214'>0.10312E+03</wgt>
<wgt id='4215'>0.10160E+03</wgt>
<wgt id='4216'>0.10218E+03</wgt>
<wgt id='4217'>0.10260E+03</wgt>
<wgt id='4218'>0.99932E+02</wgt>
<wgt id='4219'>0.10538E+03</wgt>
<wgt id='4220'>0.97896E+02</wgt>
<wgt id='4221'>0.10170E+03</wgt>
<wgt id='4222'>0.10137E+03</wgt>
<wgt id='4223'>0.10116E+03</wgt>
<wgt id='4224'>0.99454E+02</wgt>
<wgt id='4225'>0.10489E+03</wgt>
<wgt id='4226'>0.99532E+02</wgt>
<wgt id='4227'>0.10197E+03</wgt>
<wgt id='4228'>0.10046E+03</wgt>
<wgt id='4229'>0.10144E+03</wgt>
<wgt id='4230'>0.10213E+03</wgt>
<wgt id='4231'>0.10652E+03</wgt>
<wgt id='4232'>0.94246E+02</wgt>
<wgt id='4233'>0.10613E+03</wgt>
<wgt id='4234'>0.96004E+02</wgt>
<wgt id='4235'>0.10621E+03</wgt>
<wgt id='4236'>0.96623E+02</wgt>
<wgt id='4237'>0.10388E+03</wgt>
<wgt id='4238'>0.97434E+02</wgt>
<wgt id='4239'>0.10330E+03</wgt>
<wgt id='4240'>0.10359E+03</wgt>
<wgt id='4241'>0.10290E+03</wgt>
<wgt id='4242'>0.99428E+02</wgt>
<wgt id='4243'>0.10318E+03</wgt>
<wgt id='4244'>0.98695E+02</wgt>
<wgt id='4245'>0.10132E+03</wgt>
<wgt id='4246'>0.99907E+02</wgt>
<wgt id='4247'>0.96169E+02</wgt>
<wgt id='4248'>0.10549E+03</wgt>
<wgt id='4249'>0.99215E+02</wgt>
<wgt id='4250'>0.10421E+03</wgt>
<wgt id='4251'>0.11242E+03</wgt>
<wgt id='4252'>0.95139E+02</wgt>
<wgt id='4253'>0.11067E+03</wgt>
<wgt id='4254'>0.91934E+02</wgt>
<wgt id='4255'>0.10633E+03</wgt>
<wgt id='4256'>0.99527E+02</wgt>
<wgt id='4257'>0.10007E+03</wgt>
<wgt id='4258'>0.10137E+03</wgt>
<wgt id='4300'>0.98181E+02</wgt>
<wgt id='4301'>0.10400E+03</wgt>
<wgt id='5000'>0.93280E+02</wgt>
<wgt id='5001'>0.93327E+02</wgt>
<wgt id='5002'>0.93220E+02</wgt>
<wgt id='5003'>0.93294E+02</wgt>
<wgt id='5004'>0.93268E+02</wgt>
<wgt id='5005'>0.93314E+02</wgt>
<wgt id='5006'>0.93226E+02</wgt>
<wgt id='5007'>0.93366E+02</wgt>
<wgt id='5008'>0.93210E+02</wgt>
<wgt id='5009'>0.93383E+02</wgt>
<wgt id='5010'>0.93174E+02</wgt>
<wgt id='5011'>0.93749E+02</wgt>
<wgt id='5012'>0.92830E+02</wgt>
<wgt id='5013'>0.93723E+02</wgt>
<wgt id='5014'>0.92966E+02</wgt>
<wgt id='5015'>0.93224E+02</wgt>
<wgt id='5016'>0.93224E+02</wgt>
<wgt id='5017'>0.93025E+02</wgt>
<wgt id='5018'>0.93457E+02</wgt>
<wgt id='5019'>0.92955E+02</wgt>
<wgt id='5020'>0.93721E+02</wgt>
<wgt id='5021'>0.93202E+02</wgt>
<wgt id='5022'>0.93406E+02</wgt>
<wgt id='5023'>0.93349E+02</wgt>
<wgt id='5024'>0.93115E+02</wgt>
<wgt id='5025'>0.93663E+02</wgt>
<wgt id='5026'>0.92835E+02</wgt>
<wgt id='5027'>0.93361E+02</wgt>
<wgt id='5028'>0.93064E+02</wgt>
<wgt id='5029'>0.94409E+02</wgt>
<wgt id='5030'>0.92646E+02</wgt>
<wgt id='5031'>0.92326E+02</wgt>
<wgt id='5032'>0.96263E+02</wgt>
<wgt id='5033'>0.92840E+02</wgt>
<wgt id='5034'>0.93753E+02</wgt>
<wgt id='5035'>0.93481E+02</wgt>
<wgt id='5036'>0.93001E+02</wgt>
<wgt id='5037'>0.92854E+02</wgt>
<wgt id='5038'>0.93518E+02</wgt>
<wgt id='5039'>0.92999E+02</wgt>
<wgt id='5040'>0.94010E+02</wgt>
<wgt id='5041'>0.90449E+02</wgt>
<wgt id='5042'>0.96655E+02</wgt>
<wgt id='5043'>0.92857E+02</wgt>
<wgt id='5044'>0.93606E+02</wgt>
<wgt id='5045'>0.96050E+02</wgt>
<wgt id='5046'>0.87962E+02</wgt>
<wgt id='5047'>0.93655E+02</wgt>
<wgt id='5048'>0.91634E+02</wgt>
<wgt id='5049'>0.93242E+02</wgt>
<wgt id='5050'>0.93588E+02</wgt>
<wgt id='5051'>0.93826E+02</wgt>
<wgt id='5052'>0.92969E+02</wgt>
<wgt id='5053'>0.96084E+02</wgt>
<wgt id='5054'>0.92042E+02</wgt>
<wgt id='5055'>0.92841E+02</wgt>
<wgt id='5056'>0.93666E+02</wgt>
<wgt id='5057'>0.92491E+02</wgt>
<wgt id='5058'>0.93804E+02</wgt>
<wgt id='5059'>0.92698E+02</wgt>
<wgt id='5060'>0.93573E+02</wgt>
<wgt id='5061'>0.93685E+02</wgt>
<wgt id='5062'>0.93843E+02</wgt>
<wgt id='5063'>0.93037E+02</wgt>
<wgt id='5064'>0.94161E+02</wgt>
<wgt id='5100'>0.93280E+02</wgt>
<wgt id='5101'>0.93074E+02</wgt>
<wgt id='6000'>0.98371E+02</wgt>
<wgt id='6001'>0.10007E+03</wgt>
<wgt id='6002'>0.95936E+02</wgt>
<wgt id='6003'>0.97095E+02</wgt>
<wgt id='6004'>0.10010E+03</wgt>
<wgt id='6005'>0.95593E+02</wgt>
<wgt id='6006'>0.10018E+03</wgt>
<wgt id='6007'>0.96625E+02</wgt>
<wgt id='6008'>0.10056E+03</wgt>
<wgt id='6009'>0.10035E+03</wgt>
<wgt id='6010'>0.10049E+03</wgt>
<wgt id='6011'>0.99159E+02</wgt>
<wgt id='6012'>0.99737E+02</wgt>
<wgt id='6013'>0.97712E+02</wgt>
<wgt id='6014'>0.97768E+02</wgt>
<wgt id='6015'>0.97686E+02</wgt>
<wgt id='6016'>0.99376E+02</wgt>
<wgt id='6017'>0.98533E+02</wgt>
<wgt id='6018'>0.97657E+02</wgt>
<wgt id='6019'>0.99818E+02</wgt>
<wgt id='6020'>0.98598E+02</wgt>
<wgt id='6021'>0.98694E+02</wgt>
<wgt id='6022'>0.10244E+03</wgt>
<wgt id='6023'>0.98902E+02</wgt>
<wgt id='6024'>0.98348E+02</wgt>
<wgt id='6025'>0.98047E+02</wgt>
<wgt id='6026'>0.98504E+02</wgt>
<wgt id='6027'>0.98226E+02</wgt>
<wgt id='6028'>0.98158E+02</wgt>
<wgt id='6029'>0.98853E+02</wgt>
<wgt id='6030'>0.97743E+02</wgt>
<wgt id='6031'>0.96686E+02</wgt>
<wgt id='6032'>0.98502E+02</wgt>
<wgt id='6033'>0.98255E+02</wgt>
<wgt id='6034'>0.10031E+03</wgt>
<wgt id='6035'>0.98411E+02</wgt>
<wgt id='6036'>0.96831E+02</wgt>
<wgt id='6037'>0.98223E+02</wgt>
<wgt id='6038'>0.98156E+02</wgt>
<wgt id='6039'>0.99199E+02</wgt>
<wgt id='6040'>0.98027E+02</wgt>
<wgt id='6041'>0.93952E+02</wgt>
<wgt id='6042'>0.10168E+03</wgt>
<wgt id='7000'>0.72667E+02</wgt>
<wgt id='7001'>0.71842E+02</wgt>
<wgt id='7002'>0.71929E+02</wgt>
<wgt id='7003'>0.71812E+02</wgt>
<wgt id='7004'>0.71960E+02</wgt>
<wgt id='7005'>0.71522E+02</wgt>
<wgt id='7006'>0.72250E+02</wgt>
<wgt id='7007'>0.71876E+02</wgt>
<wgt id='7008'>0.71898E+02</wgt>
<wgt id='7009'>0.71967E+02</wgt>
<wgt id='7010'>0.71813E+02</wgt>
<wgt id='7011'>0.72155E+02</wgt>
<wgt id='7012'>0.71631E+02</wgt>
<wgt id='7013'>0.72221E+02</wgt>
<wgt id='7014'>0.71551E+02</wgt>
<wgt id='7015'>0.72168E+02</wgt>
<wgt id='7016'>0.71546E+02</wgt>
<wgt id='7017'>0.71687E+02</wgt>
<wgt id='7018'>0.72150E+02</wgt>
<wgt id='7019'>0.73348E+02</wgt>
<wgt id='7020'>0.70535E+02</wgt>
<wgt id='7021'>0.74290E+02</wgt>
<wgt id='7022'>0.69973E+02</wgt>
<wgt id='7023'>0.70338E+02</wgt>
<wgt id='7024'>0.73412E+02</wgt>
<wgt id='7025'>0.70154E+02</wgt>
<wgt id='7026'>0.73627E+02</wgt>
<wgt id='7027'>0.70837E+02</wgt>
<wgt id='7028'>0.72826E+02</wgt>
<wgt id='8000'>0.75668E+02</wgt>
<wgt id='8001'>0.75671E+02</wgt>
<wgt id='8002'>0.75674E+02</wgt>
<wgt id='8003'>0.75663E+02</wgt>
<wgt id='8004'>0.75666E+02</wgt>
<wgt id='8005'>0.75619E+02</wgt>
<wgt id='8006'>0.75826E+02</wgt>
<wgt id='8007'>0.75895E+02</wgt>
<wgt id='8008'>0.75483E+02</wgt>
<wgt id='8009'>0.75637E+02</wgt>
<wgt id='8010'>0.75594E+02</wgt>
<wgt id='8011'>0.75711E+02</wgt>
<wgt id='8012'>0.75650E+02</wgt>
<wgt id='8013'>0.75535E+02</wgt>
<wgt id='8014'>0.75807E+02</wgt>
<wgt id='8015'>0.75623E+02</wgt>
<wgt id='8016'>0.75935E+02</wgt>
<wgt id='8017'>0.75832E+02</wgt>
<wgt id='8018'>0.76038E+02</wgt>
<wgt id='8019'>0.74914E+02</wgt>
<wgt id='8020'>0.76701E+02</wgt>
<wgt id='8021'>0.75278E+02</wgt>
<wgt id='8022'>0.77834E+02</wgt>
<wgt id='8023'>0.75003E+02</wgt>
<wgt id='8024'>0.74457E+02</wgt>
<wgt id='8025'>0.74278E+02</wgt>
<wgt id='8026'>0.75131E+02</wgt>
<wgt id='8027'>0.76056E+02</wgt>
<wgt id='8028'>0.75715E+02</wgt>
<wgt id='8029'>0.81948E+02</wgt>
<wgt id='3000'>0.81104E+02</wgt>
<wgt id='3001'>0.79643E+02</wgt>
<wgt id='3002'>0.81802E+02</wgt>
<wgt id='3003'>0.82091E+02</wgt>
<wgt id='3004'>0.80805E+02</wgt>
<wgt id='3005'>0.75770E+02</wgt>
<wgt id='3006'>0.85304E+02</wgt>
<wgt id='3007'>0.84196E+02</wgt>
<wgt id='3008'>0.82652E+02</wgt>
<wgt id='3009'>0.82554E+02</wgt>
<wgt id='3010'>0.78579E+02</wgt>
<wgt id='3011'>0.71619E+02</wgt>
<wgt id='3012'>0.85679E+02</wgt>
<wgt id='3013'>0.78251E+02</wgt>
<wgt id='3014'>0.83797E+02</wgt>
<wgt id='3015'>0.73904E+02</wgt>
<wgt id='3016'>0.79568E+02</wgt>
<wgt id='3017'>0.78342E+02</wgt>
<wgt id='3018'>0.80248E+02</wgt>
<wgt id='3019'>0.75309E+02</wgt>
<wgt id='3020'>0.74624E+02</wgt>
<wgt id='3021'>0.82831E+02</wgt>
<wgt id='3022'>0.79234E+02</wgt>
<wgt id='3023'>0.75812E+02</wgt>
<wgt id='3024'>0.83083E+02</wgt>
<wgt id='3025'>0.84171E+02</wgt>
<wgt id='3026'>0.82964E+02</wgt>
<wgt id='3027'>0.81107E+02</wgt>
<wgt id='3028'>0.86800E+02</wgt>
<wgt id='3029'>0.78639E+02</wgt>
<wgt id='3030'>0.84380E+02</wgt>
<wgt id='3031'>0.84894E+02</wgt>
<wgt id='3032'>0.74444E+02</wgt>
<wgt id='3033'>0.79922E+02</wgt>
<wgt id='3034'>0.83965E+02</wgt>
<wgt id='3035'>0.77804E+02</wgt>
<wgt id='3036'>0.84062E+02</wgt>
<wgt id='3037'>0.77122E+02</wgt>
<wgt id='3038'>0.88217E+02</wgt>
<wgt id='3039'>0.85536E+02</wgt>
<wgt id='3040'>0.87556E+02</wgt>
<wgt id='3041'>0.83892E+02</wgt>
<wgt id='3042'>0.90147E+02</wgt>
<wgt id='3043'>0.81178E+02</wgt>
<wgt id='3044'>0.82573E+02</wgt>
<wgt id='3045'>0.77440E+02</wgt>
<wgt id='3046'>0.83190E+02</wgt>
<wgt id='3047'>0.77026E+02</wgt>
<wgt id='3048'>0.84519E+02</wgt>
<wgt id='3049'>0.77032E+02</wgt>
<wgt id='3050'>0.83632E+02</wgt>
<wgt id='3051'>0.78130E+02</wgt>
<wgt id='3052'>0.88130E+02</wgt>
<wgt id='3053'>0.79129E+02</wgt>
<wgt id='3054'>0.82908E+02</wgt>
<wgt id='3055'>0.77989E+02</wgt>
<wgt id='3056'>0.85082E+02</wgt>
<wgt id='3057'>0.77728E+02</wgt>
<wgt id='3058'>0.89680E+02</wgt>
<wgt id='3059'>0.83101E+02</wgt>
<wgt id='3060'>0.78684E+02</wgt>
<wgt id='3061'>0.81525E+02</wgt>
<wgt id='3062'>0.84271E+02</wgt>
<wgt id='3063'>0.75538E+02</wgt>
<wgt id='3064'>0.79882E+02</wgt>
<wgt id='3065'>0.80022E+02</wgt>
<wgt id='3066'>0.88809E+02</wgt>
<wgt id='3067'>0.80798E+02</wgt>
<wgt id='3068'>0.80133E+02</wgt>
<wgt id='3069'>0.77531E+02</wgt>
<wgt id='3070'>0.79589E+02</wgt>
<wgt id='3071'>0.76706E+02</wgt>
<wgt id='3072'>0.71965E+02</wgt>
<wgt id='3073'>0.77779E+02</wgt>
<wgt id='3074'>0.77738E+02</wgt>
<wgt id='3075'>0.78310E+02</wgt>
<wgt id='3076'>0.78930E+02</wgt>
<wgt id='3077'>0.79621E+02</wgt>
<wgt id='3078'>0.73869E+02</wgt>
<wgt id='3079'>0.74363E+02</wgt>
<wgt id='3080'>0.81896E+02</wgt>
<wgt id='3081'>0.82427E+02</wgt>
<wgt id='3082'>0.79568E+02</wgt>
<wgt id='3083'>0.80819E+02</wgt>
<wgt id='3084'>0.81283E+02</wgt>
<wgt id='3085'>0.84038E+02</wgt>
<wgt id='3086'>0.87890E+02</wgt>
<wgt id='3087'>0.85829E+02</wgt>
<wgt id='3088'>0.81947E+02</wgt>
<wgt id='3089'>0.88518E+02</wgt>
<wgt id='3090'>0.86413E+02</wgt>
<wgt id='3091'>0.86066E+02</wgt>
<wgt id='3092'>0.78449E+02</wgt>
<wgt id='3093'>0.81258E+02</wgt>
<wgt id='3094'>0.76104E+02</wgt>
<wgt id='3095'>0.81766E+02</wgt>
<wgt id='3096'>0.83938E+02</wgt>
<wgt id='3097'>0.86252E+02</wgt>
<wgt id='3098'>0.78070E+02</wgt>
<wgt id='3099'>0.80428E+02</wgt>
<wgt id='3100'>0.80351E+02</wgt>
<wgt id='3200'>0.81750E+02</wgt>
<wgt id='3201'>0.85941E+02</wgt>
<wgt id='3202'>0.84241E+02</wgt>
<wgt id='3203'>0.81316E+02</wgt>
<wgt id='3204'>0.81839E+02</wgt>
<wgt id='3205'>0.83050E+02</wgt>
<wgt id='3206'>0.78040E+02</wgt>
<wgt id='3207'>0.79916E+02</wgt>
<wgt id='3208'>0.82068E+02</wgt>
<wgt id='3209'>0.83812E+02</wgt>
<wgt id='3210'>0.81544E+02</wgt>
<wgt id='3211'>0.76743E+02</wgt>
<wgt id='3212'>0.87001E+02</wgt>
<wgt id='3213'>0.75307E+02</wgt>
<wgt id='3214'>0.82524E+02</wgt>
<wgt id='3215'>0.79562E+02</wgt>
<wgt id='3216'>0.83117E+02</wgt>
<wgt id='3217'>0.77408E+02</wgt>
<wgt id='3218'>0.81597E+02</wgt>
<wgt id='3219'>0.82465E+02</wgt>
<wgt id='3220'>0.87477E+02</wgt>
<wgt id='3221'>0.78360E+02</wgt>
<wgt id='3222'>0.85403E+02</wgt>
<wgt id='3223'>0.81047E+02</wgt>
<wgt id='3224'>0.78429E+02</wgt>
<wgt id='3225'>0.82030E+02</wgt>
<wgt id='3226'>0.83797E+02</wgt>
<wgt id='3227'>0.84139E+02</wgt>
<wgt id='3228'>0.79127E+02</wgt>
<wgt id='3229'>0.82066E+02</wgt>
<wgt id='3230'>0.79372E+02</wgt>
<wgt id='3231'>0.80591E+02</wgt>
<wgt id='3232'>0.83194E+02</wgt>
<wgt id='3233'>0.83392E+02</wgt>
<wgt id='3234'>0.80368E+02</wgt>
<wgt id='3235'>0.82737E+02</wgt>
<wgt id='3236'>0.83440E+02</wgt>
<wgt id='3237'>0.84374E+02</wgt>
<wgt id='3238'>0.84383E+02</wgt>
<wgt id='3239'>0.83544E+02</wgt>
<wgt id='3240'>0.81397E+02</wgt>
<wgt id='3241'>0.83873E+02</wgt>
<wgt id='3242'>0.86636E+02</wgt>
<wgt id='3243'>0.80708E+02</wgt>
<wgt id='3244'>0.77221E+02</wgt>
<wgt id='3245'>0.86211E+02</wgt>
<wgt id='3246'>0.78167E+02</wgt>
<wgt id='3247'>0.88164E+02</wgt>
<wgt id='3248'>0.79515E+02</wgt>
<wgt id='3249'>0.81544E+02</wgt>
<wgt id='3250'>0.82678E+02</wgt>
<wgt id='3251'>0.81399E+02</wgt>
<wgt id='3252'>0.82851E+02</wgt>
<wgt id='3253'>0.82043E+02</wgt>
<wgt id='3254'>0.83004E+02</wgt>
<wgt id='3255'>0.80725E+02</wgt>
<wgt id='3256'>0.82534E+02</wgt>
<wgt id='3257'>0.81245E+02</wgt>
<wgt id='3258'>0.80563E+02</wgt>
<wgt id='3259'>0.80913E+02</wgt>
<wgt id='3260'>0.82811E+02</wgt>
<wgt id='3261'>0.83433E+02</wgt>
<wgt id='3262'>0.80805E+02</wgt>
<wgt id='3263'>0.87399E+02</wgt>
<wgt id='3264'>0.87806E+02</wgt>
<wgt id='3265'>0.78954E+02</wgt>
<wgt id='3266'>0.84374E+02</wgt>
<wgt id='3267'>0.79739E+02</wgt>
<wgt id='3268'>0.76384E+02</wgt>
<wgt id='3269'>0.79431E+02</wgt>
<wgt id='3270'>0.77783E+02</wgt>
<wgt id='3271'>0.76950E+02</wgt>
<wgt id='3272'>0.84422E+02</wgt>
<wgt id='3273'>0.78443E+02</wgt>
<wgt id='3274'>0.83544E+02</wgt>
<wgt id='3275'>0.84779E+02</wgt>
<wgt id='3276'>0.77586E+02</wgt>
<wgt id='3277'>0.78347E+02</wgt>
<wgt id='3278'>0.83377E+02</wgt>
<wgt id='3279'>0.80901E+02</wgt>
<wgt id='3280'>0.82611E+02</wgt>
<wgt id='3281'>0.82990E+02</wgt>
<wgt id='3282'>0.80268E+02</wgt>
<wgt id='3283'>0.79860E+02</wgt>
<wgt id='3284'>0.84750E+02</wgt>
<wgt id='3285'>0.80782E+02</wgt>
<wgt id='3286'>0.80283E+02</wgt>
<wgt id='3287'>0.78285E+02</wgt>
<wgt id='3288'>0.79688E+02</wgt>
<wgt id='3289'>0.77266E+02</wgt>
<wgt id='3290'>0.81177E+02</wgt>
<wgt id='3291'>0.79505E+02</wgt>
<wgt id='3292'>0.84849E+02</wgt>
<wgt id='3293'>0.86258E+02</wgt>
<wgt id='3294'>0.81387E+02</wgt>
<wgt id='3295'>0.81572E+02</wgt>
<wgt id='3296'>0.84595E+02</wgt>
<wgt id='3297'>0.77374E+02</wgt>
<wgt id='3298'>0.81302E+02</wgt>
<wgt id='3299'>0.83126E+02</wgt>
<wgt id='3300'>0.82969E+02</wgt>
<wgt id='3301'>0.78600E+02</wgt>
<wgt id='3302'>0.85014E+02</wgt>
<wgt id='3400'>0.86417E+02</wgt>
<wgt id='3401'>0.92439E+02</wgt>
<wgt id='3402'>0.83551E+02</wgt>
<wgt id='3403'>0.83411E+02</wgt>
<wgt id='3404'>0.84601E+02</wgt>
<wgt id='3405'>0.91013E+02</wgt>
<wgt id='3406'>0.82747E+02</wgt>
<wgt id='3407'>0.84923E+02</wgt>
<wgt id='3408'>0.83393E+02</wgt>
<wgt id='3409'>0.86686E+02</wgt>
<wgt id='3410'>0.91739E+02</wgt>
<wgt id='3411'>0.85662E+02</wgt>
<wgt id='3412'>0.81987E+02</wgt>
<wgt id='3413'>0.86645E+02</wgt>
<wgt id='3414'>0.90170E+02</wgt>
<wgt id='3415'>0.83532E+02</wgt>
<wgt id='3416'>0.84422E+02</wgt>
<wgt id='3417'>0.82165E+02</wgt>
<wgt id='3418'>0.85451E+02</wgt>
<wgt id='3419'>0.84255E+02</wgt>
<wgt id='3420'>0.81943E+02</wgt>
<wgt id='3421'>0.84918E+02</wgt>
<wgt id='3422'>0.79454E+02</wgt>
<wgt id='3423'>0.92325E+02</wgt>
<wgt id='3424'>0.90950E+02</wgt>
<wgt id='3425'>0.93099E+02</wgt>
<wgt id='3426'>0.88013E+02</wgt>
<wgt id='3427'>0.88253E+02</wgt>
<wgt id='3428'>0.79052E+02</wgt>
<wgt id='3429'>0.84991E+02</wgt>
<wgt id='3430'>0.84483E+02</wgt>
<wgt id='3431'>0.84386E+02</wgt>
<wgt id='3432'>0.82574E+02</wgt>
<wgt id='3433'>0.89863E+02</wgt>
<wgt id='3434'>0.93540E+02</wgt>
<wgt id='3435'>0.88657E+02</wgt>
<wgt id='3436'>0.86787E+02</wgt>
<wgt id='3437'>0.82815E+02</wgt>
<wgt id='3438'>0.82978E+02</wgt>
<wgt id='3439'>0.83311E+02</wgt>
<wgt id='3440'>0.84383E+02</wgt>
<wgt id='3441'>0.89006E+02</wgt>
<wgt id='3442'>0.88800E+02</wgt>
<wgt id='3443'>0.86495E+02</wgt>
<wgt id='3444'>0.90450E+02</wgt>
<wgt id='3445'>0.86235E+02</wgt>
<wgt id='3446'>0.80497E+02</wgt>
<wgt id='3447'>0.82488E+02</wgt>
<wgt id='3448'>0.81751E+02</wgt>
<wgt id='3449'>0.87247E+02</wgt>
<wgt id='3450'>0.93703E+02</wgt>
<wgt id='3451'>0.83458E+02</wgt>
<wgt id='3452'>0.84633E+02</wgt>
<wgt id='3453'>0.88455E+02</wgt>
<wgt id='3454'>0.90017E+02</wgt>
<wgt id='3455'>0.84098E+02</wgt>
<wgt id='3456'>0.83475E+02</wgt>
<wgt id='3457'>0.89944E+02</wgt>
<wgt id='3458'>0.84541E+02</wgt>
<wgt id='3459'>0.89058E+02</wgt>
<wgt id='3460'>0.89344E+02</wgt>
<wgt id='3461'>0.84918E+02</wgt>
<wgt id='3462'>0.82897E+02</wgt>
<wgt id='3463'>0.82622E+02</wgt>
<wgt id='3464'>0.86985E+02</wgt>
<wgt id='3465'>0.83013E+02</wgt>
<wgt id='3466'>0.87639E+02</wgt>
<wgt id='3467'>0.85079E+02</wgt>
<wgt id='3468'>0.89640E+02</wgt>
<wgt id='3469'>0.85050E+02</wgt>
<wgt id='3470'>0.87084E+02</wgt>
<wgt id='3471'>0.90367E+02</wgt>
<wgt id='3472'>0.86763E+02</wgt>
<wgt id='3473'>0.88542E+02</wgt>
<wgt id='3474'>0.91394E+02</wgt>
<wgt id='3475'>0.90022E+02</wgt>
<wgt id='3476'>0.88996E+02</wgt>
<wgt id='3477'>0.91612E+02</wgt>
<wgt id='3478'>0.87861E+02</wgt>
<wgt id='3479'>0.80534E+02</wgt>
<wgt id='3480'>0.84940E+02</wgt>
<wgt id='3481'>0.86119E+02</wgt>
<wgt id='3482'>0.89936E+02</wgt>
<wgt id='3483'>0.92104E+02</wgt>
<wgt id='3484'>0.84713E+02</wgt>
<wgt id='3485'>0.80232E+02</wgt>
<wgt id='3486'>0.86950E+02</wgt>
<wgt id='3487'>0.91320E+02</wgt>
<wgt id='3488'>0.85639E+02</wgt>
<wgt id='3489'>0.87319E+02</wgt>
<wgt id='3490'>0.92567E+02</wgt>
<wgt id='3491'>0.86162E+02</wgt>
<wgt id='3492'>0.88018E+02</wgt>
<wgt id='3493'>0.83836E+02</wgt>
<wgt id='3494'>0.80441E+02</wgt>
<wgt id='3495'>0.79673E+02</wgt>
<wgt id='3496'>0.87790E+02</wgt>
<wgt id='3497'>0.90755E+02</wgt>
<wgt id='3498'>0.82479E+02</wgt>
<wgt id='3499'>0.97246E+02</wgt>
<wgt id='3500'>0.83314E+02</wgt>
</rwgt>
</event>
<event>
     13 322200  8.11039E+01  1.55692E+01 -1.00000E+00  1.72629E-01
       1    -1     0     0   503     0  0.000000000E+00  0.000000000E+00  7.121426020E+02  7.121426020E+02  0.000000000E+00  0.00000E+00  9.000E+00
      21    -1     0     0   502   503  0.000000000E+00  0.000000000E+00 -2.941856821E+02  2.941856821E+02  0.000000000E+00  0.00000E+00  9.000E+00
       6     2     1     2   502     0 -2.589450043E+01 -5.269981793E+01 -2.764941889E+01  1.857366878E+02  1.740282473E+02  0.00000E+00  9.000E+00
      -6     2     1     2     0   512  1.034069975E+01  5.339233021E+01 -1.436337786E+02  2.311457884E+02  1.727427050E+02  0.00000E+00  9.000E+00
       1     1     1     2   512     0  1.555380069E+01 -6.925122849E-01  5.892401174E+02  5.894458078E+02  2.100000000E-01  0.00000E+00  9.000E+00
      24     2     3     3     0     0 -6.834348603E+01  1.253414480E+01 -9.259275618E+00  1.056043769E+02  7.898489332E+01  0.00000E+00  9.000E+00
       5     1     3     3   502     0  4.244898560E+01 -6.523396272E+01 -1.839014327E+01  8.013231084E+01  5.060000000E+00  0.00000E+00 -1.000E+00
     -24     2     4     4     0     0  1.167628356E+01  2.690077853E+01 -1.734536001E+02  1.909163036E+02  7.418150799E+01  0.00000E+00  9.000E+00
      -5     1     4     4     0   512 -1.335583816E+00  2.649155168E+01  2.981982145E+01  4.022948478E+01  5.060000000E+00  0.00000E+00  1.000E+00
     -11     1     6     6     0     0 -9.597643838E+00  8.468316835E+00  3.149113309E+01  3.399292015E+01  5.100000000E-04  0.00000E+00  1.000E+00
      12     1     6     6     0     0 -5.874584219E+01  4.065827961E+00 -4.075040871E+01  7.161145678E+01  0.000000000E+00  0.00000E+00 -1.000E+00
      15     1     8     8     0     0 -1.025689338E+01  1.102039246E+01  2.033076138E-01  1.516086985E+01  1.777000000E+00  0.00000E+00 -1.000E+00
     -16     1     8     8     0     0  2.193317694E+01  1.588038606E+01 -1.736569077E+02  1.757554338E+02  0.000000000E+00  0.00000E+00  1.000E+00
#rwgt            1           1   582.85132099880809               10        2205           0
<rwgt>
<wgt id='1001'>0.81104E+02</wgt>
<wgt id='1002'>0.72763E+02</wgt>
<wgt id='1003'>0.89531E+02</wgt>
<wgt id='1004'>0.82416E+02</wgt>
<wgt id='1005'>0.75254E+02</wgt>
<wgt id='1006'>0.89557E+02</wgt>
<wgt id='1007'>0.73204E+02</wgt>
<wgt id='1008'>0.63369E+02</wgt>
<wgt id='1009'>0.83308E+02</wgt>
<wgt id='2000'>0.81104E+02</wgt>
<wgt id='2001'>0.81260E+02</wgt>
<wgt id='2002'>0.80821E+02</wgt>
<wgt id='2003'>0.80997E+02</wgt>
<wgt id='2004'>0.81306E+02</wgt>
<wgt id='2005'>0.81360E+02</wgt>
<wgt id='2006'>0.81345E+02</wgt>
<wgt id='2007'>0.81541E+02</wgt>
<wgt id='2008'>0.81834E+02</wgt>
<wgt id='2009'>0.80956E+02</wgt>
<wgt id='2010'>0.81084E+02</wgt>
<wgt id='2011'>0.80420E+02</wgt>
<wgt id='2012'>0.81368E+02</wgt>
<wgt id='2013'>0.81176E+02</wgt>
<wgt id='2014'>0.81407E+02</wgt>
<wgt id='2015'>0.81257E+02</wgt>
<wgt id='2016'>0.81076E+02</wgt>
<wgt id='2017'>0.80909E+02</wgt>
<wgt id='2018'>0.81262E+02</wgt>
<wgt id='2019'>0.81741E+02</wgt>
<wgt id='2020'>0.80840E+02</wgt>
<wgt id='2021'>0.81116E+02</wgt>
<wgt id='2022'>0.80907E+02</wgt>
<wgt id='2023'>0.81082E+02</wgt>
<wgt id='2024'>0.81180E+02</wgt>
<wgt id='2025'>0.81010E+02</wgt>
<wgt id='2026'>0.81030E+02</wgt>
<wgt id='2027'>0.80714E+02</wgt>
<wgt id='2028'>0.81330E+02</wgt>
<wgt id='2029'>0.80815E+02</wgt>
<wgt id='2030'>0.80964E+02</wgt>
<wgt id='2031'>0.80844E+02</wgt>
<wgt id='2032'>0.81231E+02</wgt>
<wgt id='2033'>0.81111E+02</wgt>
<wgt id='2034'>0.80914E+02</wgt>
<wgt id='2035'>0.81046E+02</wgt>
<wgt id='2036'>0.81356E+02</wgt>
<wgt id='2037'>0.81114E+02</wgt>
<wgt id='2038'>0.81153E+02</wgt>
<wgt id='2039'>0.81014E+02</wgt>
<wgt id='2040'>0.81026E+02</wgt>
<wgt id='2041'>0.81231E+02</wgt>
<wgt id='2042'>0.80946E+02</wgt>
<wgt id='2043'>0.80910E+02</wgt>
<wgt id='2044'>0.81081E+02</wgt>
<wgt id='2045'>0.80998E+02</wgt>
<wgt id='2046'>0.81023E+02</wgt>
<wgt id='2047'>0.81055E+02</wgt>
<wgt id='2048'>0.81174E+02</wgt>
<wgt id='2049'>0.81005E+02</wgt>
<wgt id='2050'>0.81038E+02</wgt>
<wgt id='2051'>0.81142E+02</wgt>
<wgt id='2052'>0.81137E+02</wgt>
<wgt id='2053'>0.81153E+02</wgt>
<wgt id='2054'>0.81114E+02</wgt>
<wgt id='2055'>0.81124E+02</wgt>
<wgt id='2056'>0.81080E+02</wgt>
<wgt id='2057'>0.81126E+02</wgt>
<wgt id='2058'>0.81114E+02</wgt>
<wgt id='2059'>0.81176E+02</wgt>
<wgt id='2060'>0.81160E+02</wgt>
<wgt id='2061'>0.81089E+02</wgt>
<wgt id='2062'>0.81211E+02</wgt>
<wgt id='2063'>0.81118E+02</wgt>
<wgt id='2064'>0.81144E+02</wgt>
<wgt id='2065'>0.81188E+02</wgt>
<wgt id='2066'>0.81104E+02</wgt>
<wgt id='2067'>0.81138E+02</wgt>
<wgt id='2068'>0.81097E+02</wgt>
<wgt id='2069'>0.81118E+02</wgt>
<wgt id='2070'>0.81108E+02</wgt>
<wgt id='2071'>0.81113E+02</wgt>
<wgt id='2072'>0.81099E+02</wgt>
<wgt id='2073'>0.81108E+02</wgt>
<wgt id='2074'>0.81129E+02</wgt>
<wgt id='2075'>0.81078E+02</wgt>
<wgt id='2076'>0.81091E+02</wgt>
<wgt id='2077'>0.81168E+02</wgt>
<wgt id='2078'>0.81097E+02</wgt>
<wgt id='2079'>0.81092E+02</wgt>
<wgt id='2080'>0.81115E+02</wgt>
<wgt id='2081'>0.81122E+02</wgt>
<wgt id='2082'>0.81128E+02</wgt>
<wgt id='2083'>0.81112E+02</wgt>
<wgt id='2084'>0.81111E+02</wgt>
<wgt id='2085'>0.81096E+02</wgt>
<wgt id='2086'>0.81085E+02</wgt>
<wgt id='2087'>0.81117E+02</wgt>
<wgt id='2088'>0.81104E+02</wgt>
<wgt id='2089'>0.81110E+02</wgt>
<wgt id='2090'>0.81113E+02</wgt>
<wgt id='2091'>0.81106E+02</wgt>
<wgt id='2092'>0.81114E+02</wgt>
<wgt id='2093'>0.81104E+02</wgt>
<wgt id='2094'>0.81102E+02</wgt>
<wgt id='2095'>0.81106E+02</wgt>
<wgt id='2096'>0.81100E+02</wgt>
<wgt id='2097'>0.81093E+02</wgt>
<wgt id='2098'>0.81122E+02</wgt>
<wgt id='2099'>0.81104E+02</wgt>
<wgt id='2100'>0.81104E+02</wgt>
<wgt id='2101'>0.79587E+02</wgt>
<wgt id='2102'>0.81784E+02</wgt>
<wgt id='2200'>0.80894E+02</wgt>
<wgt id='2201'>0.76063E+02</wgt>
<wgt id='2202'>0.76843E+02</wgt>
<wgt id='2203'>0.78096E+02</wgt>
<wgt id='2204'>0.79359E+02</wgt>
<wgt id='2205'>0.80672E+02</wgt>
<wgt id='2206'>0.81529E+02</wgt>
<wgt id='2207'>0.82215E+02</wgt>
<wgt id='2208'>0.82869E+02</wgt>
<wgt id='2300'>0.83364E+02</wgt>
<wgt id='2301'>0.83554E+02</wgt>
<wgt id='2302'>0.83216E+02</wgt>
<wgt id='2303'>0.83577E+02</wgt>
<wgt id='2304'>0.83577E+02</wgt>
<wgt id='2305'>0.83746E+02</wgt>
<wgt id='2306'>0.83388E+02</wgt>
<wgt id='2307'>0.83712E+02</wgt>
<wgt id='2308'>0.83210E+02</wgt>
<wgt id='2309'>0.83627E+02</wgt>
<wgt id='2310'>0.83110E+02</wgt>
<wgt id='2311'>0.83309E+02</wgt>
<wgt id='2312'>0.83792E+02</wgt>
<wgt id='2313'>0.83040E+02</wgt>
<wgt id='2314'>0.83720E+02</wgt>
<wgt id='2315'>0.83379E+02</wgt>
<wgt id='2316'>0.83421E+02</wgt>
<wgt id='2317'>0.83737E+02</wgt>
<wgt id='2318'>0.83630E+02</wgt>
<wgt id='2319'>0.82938E+02</wgt>
<wgt id='2320'>0.83046E+02</wgt>
<wgt id='2321'>0.82880E+02</wgt>
<wgt id='2322'>0.83336E+02</wgt>
<wgt id='2323'>0.83114E+02</wgt>
<wgt id='2324'>0.83058E+02</wgt>
<wgt id='2325'>0.83401E+02</wgt>
<wgt id='2326'>0.83566E+02</wgt>
<wgt id='2327'>0.83412E+02</wgt>
<wgt id='2328'>0.83036E+02</wgt>
<wgt id='2329'>0.83208E+02</wgt>
<wgt id='2330'>0.83559E+02</wgt>
<wgt id='2331'>0.83460E+02</wgt>
<wgt id='2332'>0.83471E+02</wgt>
<wgt id='2333'>0.83524E+02</wgt>
<wgt id='2334'>0.83415E+02</wgt>
<wgt id='2335'>0.83607E+02</wgt>
<wgt id='2336'>0.83413E+02</wgt>
<wgt id='2337'>0.83294E+02</wgt>
<wgt id='2338'>0.83349E+02</wgt>
<wgt id='2339'>0.83332E+02</wgt>
<wgt id='2340'>0.83280E+02</wgt>
<wgt id='2341'>0.83424E+02</wgt>
<wgt id='2342'>0.83310E+02</wgt>
<wgt id='2343'>0.83253E+02</wgt>
<wgt id='2344'>0.83479E+02</wgt>
<wgt id='2345'>0.83501E+02</wgt>
<wgt id='2346'>0.83439E+02</wgt>
<wgt id='2347'>0.83360E+02</wgt>
<wgt id='2348'>0.83461E+02</wgt>
<wgt id='2349'>0.83324E+02</wgt>
<wgt id='2350'>0.83406E+02</wgt>
<wgt id='2351'>0.83426E+02</wgt>
<wgt id='2352'>0.83312E+02</wgt>
<wgt id='2353'>0.83393E+02</wgt>
<wgt id='2354'>0.83395E+02</wgt>
<wgt id='2355'>0.83325E+02</wgt>
<wgt id='2356'>0.83413E+02</wgt>
<wgt id='2357'>0.83371E+02</wgt>
<wgt id='2358'>0.83371E+02</wgt>
<wgt id='2359'>0.83403E+02</wgt>
<wgt id='2360'>0.83419E+02</wgt>
<wgt id='2361'>0.83475E+02</wgt>
<wgt id='2362'>0.83303E+02</wgt>
<wgt id='2363'>0.83504E+02</wgt>
<wgt id='2364'>0.83347E+02</wgt>
<wgt id='2365'>0.83439E+02</wgt>
<wgt id='2366'>0.83411E+02</wgt>
<wgt id='2367'>0.83445E+02</wgt>
<wgt id='2368'>0.83336E+02</wgt>
<wgt id='2369'>0.83361E+02</wgt>
<wgt id='2370'>0.83386E+02</wgt>
<wgt id='2371'>0.83390E+02</wgt>
<wgt id='2372'>0.83363E+02</wgt>
<wgt id='2373'>0.83345E+02</wgt>
<wgt id='2374'>0.83409E+02</wgt>
<wgt id='2375'>0.83363E+02</wgt>
<wgt id='2376'>0.83379E+02</wgt>
<wgt id='2377'>0.83354E+02</wgt>
<wgt id='2378'>0.83355E+02</wgt>
<wgt id='2379'>0.83371E+02</wgt>
<wgt id='2380'>0.83364E+02</wgt>
<wgt id='2381'>0.83366E+02</wgt>
<wgt id='2382'>0.83360E+02</wgt>
<wgt id='2383'>0.83400E+02</wgt>
<wgt id='2384'>0.83364E+02</wgt>
<wgt id='2385'>0.83382E+02</wgt>
<wgt id='2386'>0.83374E+02</wgt>
<wgt id='2387'>0.83361E+02</wgt>
<wgt id='2388'>0.83376E+02</wgt>
<wgt id='2389'>0.83366E+02</wgt>
<wgt id='2390'>0.83381E+02</wgt>
<wgt id='2391'>0.83359E+02</wgt>
<wgt id='2392'>0.83378E+02</wgt>
<wgt id='2393'>0.83374E+02</wgt>
<wgt id='2394'>0.83377E+02</wgt>
<wgt id='2395'>0.83381E+02</wgt>
<wgt id='2396'>0.83346E+02</wgt>
<wgt id='2397'>0.83359E+02</wgt>
<wgt id='2398'>0.83359E+02</wgt>
<wgt id='2399'>0.83364E+02</wgt>
<wgt id='2400'>0.83380E+02</wgt>
<wgt id='2401'>0.82233E+02</wgt>
<wgt id='2402'>0.84533E+02</wgt>
<wgt id='2500'>0.79770E+02</wgt>
<wgt id='2501'>0.83225E+02</wgt>
<wgt id='2600'>0.77469E+02</wgt>
<wgt id='2601'>0.77456E+02</wgt>
<wgt id='2602'>0.77530E+02</wgt>
<wgt id='2603'>0.77413E+02</wgt>
<wgt id='2604'>0.77704E+02</wgt>
<wgt id='2605'>0.77332E+02</wgt>
<wgt id='2606'>0.77121E+02</wgt>
<wgt id='2607'>0.77743E+02</wgt>
<wgt id='2608'>0.77288E+02</wgt>
<wgt id='2609'>0.77433E+02</wgt>
<wgt id='2610'>0.77417E+02</wgt>
<wgt id='2611'>0.77390E+02</wgt>
<wgt id='2612'>0.77917E+02</wgt>
<wgt id='2613'>0.77435E+02</wgt>
<wgt id='2614'>0.77488E+02</wgt>
<wgt id='2615'>0.77370E+02</wgt>
<wgt id='2616'>0.77427E+02</wgt>
<wgt id='2617'>0.77385E+02</wgt>
<wgt id='2618'>0.77261E+02</wgt>
<wgt id='2619'>0.77510E+02</wgt>
<wgt id='2620'>0.77555E+02</wgt>
<wgt id='2621'>0.77415E+02</wgt>
<wgt id='2622'>0.77475E+02</wgt>
<wgt id='2623'>0.77479E+02</wgt>
<wgt id='2624'>0.77488E+02</wgt>
<wgt id='2625'>0.77403E+02</wgt>
<wgt id='2626'>0.77439E+02</wgt>
<wgt id='2627'>0.77424E+02</wgt>
<wgt id='2628'>0.77498E+02</wgt>
<wgt id='2629'>0.77437E+02</wgt>
<wgt id='2630'>0.77410E+02</wgt>
<wgt id='2631'>0.77457E+02</wgt>
<wgt id='2632'>0.77516E+02</wgt>
<wgt id='2633'>0.77476E+02</wgt>
<wgt id='2634'>0.77461E+02</wgt>
<wgt id='2635'>0.77488E+02</wgt>
<wgt id='2636'>0.77455E+02</wgt>
<wgt id='2637'>0.77481E+02</wgt>
<wgt id='2638'>0.77453E+02</wgt>
<wgt id='2639'>0.77470E+02</wgt>
<wgt id='2640'>0.77462E+02</wgt>
<wgt id='2641'>0.77491E+02</wgt>
<wgt id='2642'>0.77469E+02</wgt>
<wgt id='2643'>0.77471E+02</wgt>
<wgt id='2644'>0.77477E+02</wgt>
<wgt id='2645'>0.77489E+02</wgt>
<wgt id='2646'>0.77475E+02</wgt>
<wgt id='2647'>0.77457E+02</wgt>
<wgt id='2648'>0.77474E+02</wgt>
<wgt id='2649'>0.77459E+02</wgt>
<wgt id='2650'>0.77468E+02</wgt>
<wgt id='2651'>0.76573E+02</wgt>
<wgt id='2652'>0.78294E+02</wgt>
<wgt id='2700'>0.75701E+02</wgt>
<wgt id='2701'>0.76573E+02</wgt>
<wgt id='2702'>0.77078E+02</wgt>
<wgt id='2703'>0.77783E+02</wgt>
<wgt id='2704'>0.78294E+02</wgt>
<wgt id='2705'>0.78944E+02</wgt>
<wgt id='2800'>0.77280E+02</wgt>
<wgt id='4000'>0.77110E+02</wgt>
<wgt id='4001'>0.77369E+02</wgt>
<wgt id='4002'>0.76742E+02</wgt>
<wgt id='4003'>0.78320E+02</wgt>
<wgt id='4004'>0.75496E+02</wgt>
<wgt id='4005'>0.76164E+02</wgt>
<wgt id='4006'>0.77762E+02</wgt>
<wgt id='4007'>0.78545E+02</wgt>
<wgt id='4008'>0.75667E+02</wgt>
<wgt id='4009'>0.78006E+02</wgt>
<wgt id='4010'>0.76585E+02</wgt>
<wgt id='4011'>0.77240E+02</wgt>
<wgt id='4012'>0.77029E+02</wgt>
<wgt id='4013'>0.77482E+02</wgt>
<wgt id='4014'>0.76617E+02</wgt>
<wgt id='4015'>0.76433E+02</wgt>
<wgt id='4016'>0.76544E+02</wgt>
<wgt id='4017'>0.76868E+02</wgt>
<wgt id='4018'>0.77370E+02</wgt>
<wgt id='4019'>0.77965E+02</wgt>
<wgt id='4020'>0.75603E+02</wgt>
<wgt id='4021'>0.76990E+02</wgt>
<wgt id='4022'>0.77274E+02</wgt>
<wgt id='4023'>0.76235E+02</wgt>
<wgt id='4024'>0.77464E+02</wgt>
<wgt id='4025'>0.77554E+02</wgt>
<wgt id='4026'>0.75920E+02</wgt>
<wgt id='4027'>0.76384E+02</wgt>
<wgt id='4028'>0.77579E+02</wgt>
<wgt id='4029'>0.75271E+02</wgt>
<wgt id='4030'>0.77825E+02</wgt>
<wgt id='4031'>0.77124E+02</wgt>
<wgt id='4032'>0.75459E+02</wgt>
<wgt id='4033'>0.76442E+02</wgt>
<wgt id='4034'>0.77365E+02</wgt>
<wgt id='4035'>0.77854E+02</wgt>
<wgt id='4036'>0.76303E+02</wgt>
<wgt id='4037'>0.77434E+02</wgt>
<wgt id='4038'>0.76651E+02</wgt>
<wgt id='4039'>0.78187E+02</wgt>
<wgt id='4040'>0.75790E+02</wgt>
<wgt id='4041'>0.76705E+02</wgt>
<wgt id='4042'>0.77387E+02</wgt>
<wgt id='4043'>0.75841E+02</wgt>
<wgt id='4044'>0.77882E+02</wgt>
<wgt id='4045'>0.79832E+02</wgt>
<wgt id='4046'>0.75695E+02</wgt>
<wgt id='4047'>0.75545E+02</wgt>
<wgt id='4048'>0.77334E+02</wgt>
<wgt id='4049'>0.76733E+02</wgt>
<wgt id='4050'>0.77125E+02</wgt>
<wgt id='4051'>0.79006E+02</wgt>
<wgt id='4052'>0.75169E+02</wgt>
<wgt id='4053'>0.78308E+02</wgt>
<wgt id='4054'>0.75657E+02</wgt>
<wgt id='4055'>0.77298E+02</wgt>
<wgt id='4056'>0.76496E+02</wgt>
<wgt id='4057'>0.76309E+02</wgt>
<wgt id='4058'>0.77685E+02</wgt>
<wgt id='4100'>0.78334E+02</wgt>
<wgt id='4101'>0.77768E+02</wgt>
<wgt id='4102'>0.76383E+02</wgt>
<wgt id='4103'>0.75607E+02</wgt>
<wgt id='4200'>0.73750E+02</wgt>
<wgt id='4201'>0.73806E+02</wgt>
<wgt id='4202'>0.73649E+02</wgt>
<wgt id='4203'>0.73052E+02</wgt>
<wgt id='4204'>0.74415E+02</wgt>
<wgt id='4205'>0.73764E+02</wgt>
<wgt id='4206'>0.73571E+02</wgt>
<wgt id='4207'>0.73165E+02</wgt>
<wgt id='4208'>0.74043E+02</wgt>
<wgt id='4209'>0.73925E+02</wgt>
<wgt id='4210'>0.73707E+02</wgt>
<wgt id='4211'>0.74953E+02</wgt>
<wgt id='4212'>0.72741E+02</wgt>
<wgt id='4213'>0.73839E+02</wgt>
<wgt id='4214'>0.73555E+02</wgt>
<wgt id='4215'>0.73879E+02</wgt>
<wgt id='4216'>0.73103E+02</wgt>
<wgt id='4217'>0.73220E+02</wgt>
<wgt id='4218'>0.74167E+02</wgt>
<wgt id='4219'>0.72375E+02</wgt>
<wgt id='4220'>0.74773E+02</wgt>
<wgt id='4221'>0.72919E+02</wgt>
<wgt id='4222'>0.74453E+02</wgt>
<wgt id='4223'>0.75169E+02</wgt>
<wgt id='4224'>0.72901E+02</wgt>
<wgt id='4225'>0.71838E+02</wgt>
<wgt id='4226'>0.75149E+02</wgt>
<wgt id='4227'>0.73924E+02</wgt>
<wgt id='4228'>0.73542E+02</wgt>
<wgt id='4229'>0.73672E+02</wgt>
<wgt id='4230'>0.73624E+02</wgt>
<wgt id='4231'>0.73334E+02</wgt>
<wgt id='4232'>0.74258E+02</wgt>
<wgt id='4233'>0.74017E+02</wgt>
<wgt id='4234'>0.73634E+02</wgt>
<wgt id='4235'>0.73972E+02</wgt>
<wgt id='4236'>0.73442E+02</wgt>
<wgt id='4237'>0.73260E+02</wgt>
<wgt id='4238'>0.74384E+02</wgt>
<wgt id='4239'>0.75179E+02</wgt>
<wgt id='4240'>0.71499E+02</wgt>
<wgt id='4241'>0.72957E+02</wgt>
<wgt id='4242'>0.74569E+02</wgt>
<wgt id='4243'>0.73610E+02</wgt>
<wgt id='4244'>0.73803E+02</wgt>
<wgt id='4245'>0.72292E+02</wgt>
<wgt id='4246'>0.75408E+02</wgt>
<wgt id='4247'>0.73562E+02</wgt>
<wgt id='4248'>0.73907E+02</wgt>
<wgt id='4249'>0.74700E+02</wgt>
<wgt id='4250'>0.72529E+02</wgt>
<wgt id='4251'>0.71608E+02</wgt>
<wgt id='4252'>0.75008E+02</wgt>
<wgt id='4253'>0.72685E+02</wgt>
<wgt id='4254'>0.74652E+02</wgt>
<wgt id='4255'>0.73438E+02</wgt>
<wgt id='4256'>0.73565E+02</wgt>
<wgt id='4257'>0.72188E+02</wgt>
<wgt id='4258'>0.74211E+02</wgt>
<wgt id='4300'>0.76265E+02</wgt>
<wgt id='4301'>0.75044E+02</wgt>
<wgt id='5000'>0.77040E+02</wgt>
<wgt id='5001'>0.77060E+02</wgt>
<wgt id='5002'>0.77013E+02</wgt>
<wgt id='5003'>0.77062E+02</wgt>
<wgt id='5004'>0.77019E+02</wgt>
<wgt id='5005'>0.77015E+02</wgt>
<wgt id='5006'>0.77080E+02</wgt>
<wgt id='5007'>0.77091E+02</wgt>
<wgt id='5008'>0.76998E+02</wgt>
<wgt id='5009'>0.77132E+02</wgt>
<wgt id='5010'>0.76945E+02</wgt>
<wgt id='5011'>0.77190E+02</wgt>
<wgt id='5012'>0.76895E+02</wgt>
<wgt id='5013'>0.77091E+02</wgt>
<wgt id='5014'>0.77003E+02</wgt>
<wgt id='5015'>0.76604E+02</wgt>
<wgt id='5016'>0.76604E+02</wgt>
<wgt id='5017'>0.77641E+02</wgt>
<wgt id='5018'>0.76633E+02</wgt>
<wgt id='5019'>0.77516E+02</wgt>
<wgt id='5020'>0.76390E+02</wgt>
<wgt id='5021'>0.77165E+02</wgt>
<wgt id='5022'>0.76842E+02</wgt>
<wgt id='5023'>0.76863E+02</wgt>
<wgt id='5024'>0.77463E+02</wgt>
<wgt id='5025'>0.76525E+02</wgt>
<wgt id='5026'>0.77624E+02</wgt>
<wgt id='5027'>0.77059E+02</wgt>
<wgt id='5028'>0.76988E+02</wgt>
<wgt id='5029'>0.77503E+02</wgt>
<wgt id='5030'>0.76773E+02</wgt>
<wgt id='5031'>0.76899E+02</wgt>
<wgt id='5032'>0.77431E+02</wgt>
<wgt id='5033'>0.77067E+02</wgt>
<wgt id='5034'>0.77011E+02</wgt>
<wgt id='5035'>0.77038E+02</wgt>
<wgt id='5036'>0.77046E+02</wgt>
<wgt id='5037'>0.77035E+02</wgt>
<wgt id='5038'>0.77045E+02</wgt>
<wgt id='5039'>0.77308E+02</wgt>
<wgt id='5040'>0.76395E+02</wgt>
<wgt id='5041'>0.77632E+02</wgt>
<wgt id='5042'>0.76452E+02</wgt>
<wgt id='5043'>0.77095E+02</wgt>
<wgt id='5044'>0.77080E+02</wgt>
<wgt id='5045'>0.76774E+02</wgt>
<wgt id='5046'>0.77241E+02</wgt>
<wgt id='5047'>0.77053E+02</wgt>
<wgt id='5048'>0.76989E+02</wgt>
<wgt id='5049'>0.77056E+02</wgt>
<wgt id='5050'>0.77021E+02</wgt>
<wgt id='5051'>0.77142E+02</wgt>
<wgt id='5052'>0.76905E+02</wgt>
<wgt id='5053'>0.76725E+02</wgt>
<wgt id='5054'>0.77110E+02</wgt>
<wgt id='5055'>0.77162E+02</wgt>
<wgt id='5056'>0.77113E+02</wgt>
<wgt id='5057'>0.76793E+02</wgt>
<wgt id='5058'>0.77209E+02</wgt>
<wgt id='5059'>0.77089E+02</wgt>
<wgt id='5060'>0.77059E+02</wgt>
<wgt id='5061'>0.77286E+02</wgt>
<wgt id='5062'>0.76925E+02</wgt>
<wgt id='5063'>0.77327E+02</wgt>
<wgt id='5064'>0.76932E+02</wgt>
<wgt id='5100'>0.77040E+02</wgt>
<wgt id='5101'>0.77090E+02</wgt>
<wgt id='6000'>0.77710E+02</wgt>
<wgt id='6001'>0.78142E+02</wgt>
<wgt id='6002'>0.78187E+02</wgt>
<wgt id='6003'>0.77807E+02</wgt>
<wgt id='6004'>0.77473E+02</wgt>
<wgt id='6005'>0.77673E+02</wgt>
<wgt id='6006'>0.78141E+02</wgt>
<wgt id='6007'>0.77753E+02</wgt>
<wgt id='6008'>0.76152E+02</wgt>
<wgt id='6009'>0.78189E+02</wgt>
<wgt id='6010'>0.76257E+02</wgt>
<wgt id='6011'>0.77685E+02</wgt>
<wgt id='6012'>0.78023E+02</wgt>
<wgt id='6013'>0.77549E+02</wgt>
<wgt id='6014'>0.77767E+02</wgt>
<wgt id='6015'>0.77371E+02</wgt>
<wgt id='6016'>0.77640E+02</wgt>
<wgt id='6017'>0.77843E+02</wgt>
<wgt id='6018'>0.77765E+02</wgt>
<wgt id='6019'>0.77739E+02</wgt>
<wgt id='6020'>0.77905E+02</wgt>
<wgt id='6021'>0.77819E+02</wgt>
<wgt id='6022'>0.77485E+02</wgt>
<wgt id='6023'>0.77775E+02</wgt>
<wgt id='6024'>0.77783E+02</wgt>
<wgt id='6025'>0.77921E+02</wgt>
<wgt id='6026'>0.77838E+02</wgt>
<wgt id='6027'>0.77775E+02</wgt>
<wgt id='6028'>0.77626E+02</wgt>
<wgt id='6029'>0.77645E+02</wgt>
<wgt id='6030'>0.78719E+02</wgt>
<wgt id='6031'>0.77522E+02</wgt>
<wgt id='6032'>0.77725E+02</wgt>
<wgt id='6033'>0.77619E+02</wgt>
<wgt id='6034'>0.77946E+02</wgt>
<wgt id='6035'>0.77744E+02</wgt>
<wgt id='6036'>0.78006E+02</wgt>
<wgt id='6037'>0.77745E+02</wgt>
<wgt id='6038'>0.77786E+02</wgt>
<wgt id='6039'>0.77751E+02</wgt>
<wgt id='6040'>0.77732E+02</wgt>
<wgt id='6041'>0.77396E+02</wgt>
<wgt id='6042'>0.77955E+02</wgt>
<wgt id='7000'>0.77610E+02</wgt>
<wgt id='7001'>0.77324E+02</wgt>
<wgt id='7002'>0.77498E+02</wgt>
<wgt id='7003'>0.77435E+02</wgt>
<wgt id='7004'>0.77388E+02</wgt>
<wgt id='7005'>0.77624E+02</wgt>
<wgt id='7006'>0.77200E+02</wgt>
<wgt id='7007'>0.77989E+02</wgt>
<wgt id='7008'>0.76850E+02</wgt>
<wgt id='7009'>0.77179E+02</wgt>
<wgt id='7010'>0.77654E+02</wgt>
<wgt id='7011'>0.77814E+02</wgt>
<wgt id='7012'>0.77012E+02</wgt>
<wgt id='7013'>0.77208E+02</wgt>
<wgt id='7014'>0.77608E+02</wgt>
<wgt id='7015'>0.77209E+02</wgt>
<wgt id='7016'>0.77382E+02</wgt>
<wgt id='7017'>0.77470E+02</wgt>
<wgt id='7018'>0.77349E+02</wgt>
<wgt id='7019'>0.77181E+02</wgt>
<wgt id='7020'>0.77657E+02</wgt>
<wgt id='7021'>0.76774E+02</wgt>
<wgt id='7022'>0.77941E+02</wgt>
<wgt id='7023'>0.77456E+02</wgt>
<wgt id='7024'>0.77349E+02</wgt>
<wgt id='7025'>0.76777E+02</wgt>
<wgt id='7026'>0.77827E+02</wgt>
<wgt id='7027'>0.77327E+02</wgt>
<wgt id='7028'>0.77597E+02</wgt>
<wgt id='8000'>0.78480E+02</wgt>
<wgt id='8001'>0.78470E+02</wgt>
<wgt id='8002'>0.78508E+02</wgt>
<wgt id='8003'>0.78487E+02</wgt>
<wgt id='8004'>0.78478E+02</wgt>
<wgt id='8005'>0.78282E+02</wgt>
<wgt id='8006'>0.78507E+02</wgt>
<wgt id='8007'>0.78537E+02</wgt>
<wgt id='8008'>0.78701E+02</wgt>
<wgt id='8009'>0.78917E+02</wgt>
<wgt id='8010'>0.78404E+02</wgt>
<wgt id='8011'>0.78481E+02</wgt>
<wgt id='8012'>0.78192E+02</wgt>
<wgt id='8013'>0.78386E+02</wgt>
<wgt id='8014'>0.78603E+02</wgt>
<wgt id='8015'>0.78438E+02</wgt>
<wgt id='8016'>0.78551E+02</wgt>
<wgt id='8017'>0.78539E+02</wgt>
<wgt id='8018'>0.78588E+02</wgt>
<wgt id='8019'>0.78698E+02</wgt>
<wgt id='8020'>0.78151E+02</wgt>
<wgt id='8021'>0.78481E+02</wgt>
<wgt id='8022'>0.77865E+02</wgt>
<wgt id='8023'>0.78588E+02</wgt>
<wgt id='8024'>0.78557E+02</wgt>
<wgt id='8025'>0.78785E+02</wgt>
<wgt id='8026'>0.78686E+02</wgt>
<wgt id='8027'>0.78386E+02</wgt>
<wgt id='8028'>0.78629E+02</wgt>
<wgt id='8029'>0.77404E+02</wgt>
<wgt id='3000'>0.81104E+02</wgt>
<wgt id='3001'>0.79457E+02</wgt>
<wgt id='3002'>0.80105E+02</wgt>
<wgt id='3003'>0.82936E+02</wgt>
<wgt id='3004'>0.82181E+02</wgt>
<wgt id='3005'>0.80556E+02</wgt>
<wgt id='3006'>0.83522E+02</wgt>
<wgt id='3007'>0.80445E+02</wgt>
<wgt id='3008'>0.80419E+02</wgt>
<wgt id='3009'>0.83255E+02</wgt>
<wgt id='3010'>0.82764E+02</wgt>
<wgt id='3011'>0.82850E+02</wgt>
<wgt id='3012'>0.80628E+02</wgt>
<wgt id='3013'>0.79737E+02</wgt>
<wgt id='3014'>0.79349E+02</wgt>
<wgt id='3015'>0.82830E+02</wgt>
<wgt id='3016'>0.83455E+02</wgt>
<wgt id='3017'>0.83054E+02</wgt>
<wgt id='3018'>0.80744E+02</wgt>
<wgt id='3019'>0.79641E+02</wgt>
<wgt id='3020'>0.80956E+02</wgt>
<wgt id='3021'>0.79554E+02</wgt>
<wgt id='3022'>0.79788E+02</wgt>
<wgt id='3023'>0.79357E+02</wgt>
<wgt id='3024'>0.78694E+02</wgt>
<wgt id='3025'>0.79628E+02</wgt>
<wgt id='3026'>0.81552E+02</wgt>
<wgt id='3027'>0.79807E+02</wgt>
<wgt id='3028'>0.81014E+02</wgt>
<wgt id='3029'>0.82774E+02</wgt>
<wgt id='3030'>0.83747E+02</wgt>
<wgt id='3031'>0.81316E+02</wgt>
<wgt id='3032'>0.82090E+02</wgt>
<wgt id='3033'>0.79699E+02</wgt>
<wgt id='3034'>0.79786E+02</wgt>
<wgt id='3035'>0.82905E+02</wgt>
<wgt id='3036'>0.80333E+02</wgt>
<wgt id='3037'>0.81605E+02</wgt>
<wgt id='3038'>0.80396E+02</wgt>
<wgt id='3039'>0.81733E+02</wgt>
<wgt id='3040'>0.80911E+02</wgt>
<wgt id='3041'>0.82859E+02</wgt>
<wgt id='3042'>0.79324E+02</wgt>
<wgt id='3043'>0.80326E+02</wgt>
<wgt id='3044'>0.80035E+02</wgt>
<wgt id='3045'>0.81520E+02</wgt>
<wgt id='3046'>0.81622E+02</wgt>
<wgt id='3047'>0.77736E+02</wgt>
<wgt id='3048'>0.78348E+02</wgt>
<wgt id='3049'>0.82848E+02</wgt>
<wgt id='3050'>0.82944E+02</wgt>
<wgt id='3051'>0.81755E+02</wgt>
<wgt id='3052'>0.79615E+02</wgt>
<wgt id='3053'>0.80686E+02</wgt>
<wgt id='3054'>0.82594E+02</wgt>
<wgt id='3055'>0.78285E+02</wgt>
<wgt id='3056'>0.80527E+02</wgt>
<wgt id='3057'>0.80566E+02</wgt>
<wgt id='3058'>0.78255E+02</wgt>
<wgt id='3059'>0.84704E+02</wgt>
<wgt id='3060'>0.81861E+02</wgt>
<wgt id='3061'>0.81240E+02</wgt>
<wgt id='3062'>0.81477E+02</wgt>
<wgt id='3063'>0.78443E+02</wgt>
<wgt id='3064'>0.80157E+02</wgt>
<wgt id='3065'>0.80895E+02</wgt>
<wgt id='3066'>0.80925E+02</wgt>
<wgt id='3067'>0.78267E+02</wgt>
<wgt id='3068'>0.82428E+02</wgt>
<wgt id='3069'>0.80039E+02</wgt>
<wgt id='3070'>0.78119E+02</wgt>
<wgt id='3071'>0.83447E+02</wgt>
<wgt id='3072'>0.82483E+02</wgt>
<wgt id='3073'>0.82888E+02</wgt>
<wgt id='3074'>0.83996E+02</wgt>
<wgt id='3075'>0.83094E+02</wgt>
<wgt id='3076'>0.82957E+02</wgt>
<wgt id='3077'>0.79322E+02</wgt>
<wgt id='3078'>0.83169E+02</wgt>
<wgt id='3079'>0.81259E+02</wgt>
<wgt id='3080'>0.79302E+02</wgt>
<wgt id='3081'>0.77856E+02</wgt>
<wgt id='3082'>0.83455E+02</wgt>
<wgt id='3083'>0.80293E+02</wgt>
<wgt id='3084'>0.81259E+02</wgt>
<wgt id='3085'>0.83757E+02</wgt>
<wgt id='3086'>0.77292E+02</wgt>
<wgt id='3087'>0.83177E+02</wgt>
<wgt id='3088'>0.82672E+02</wgt>
<wgt id='3089'>0.85369E+02</wgt>
<wgt id='3090'>0.80220E+02</wgt>
<wgt id='3091'>0.79981E+02</wgt>
<wgt id='3092'>0.82892E+02</wgt>
<wgt id='3093'>0.82487E+02</wgt>
<wgt id='3094'>0.80681E+02</wgt>
<wgt id='3095'>0.80647E+02</wgt>
<wgt id='3096'>0.80606E+02</wgt>
<wgt id='3097'>0.78725E+02</wgt>
<wgt id='3098'>0.81980E+02</wgt>
<wgt id='3099'>0.80520E+02</wgt>
<wgt id='3100'>0.81160E+02</wgt>
<wgt id='3200'>0.77428E+02</wgt>
<wgt id='3201'>0.77792E+02</wgt>
<wgt id='3202'>0.76484E+02</wgt>
<wgt id='3203'>0.76782E+02</wgt>
<wgt id='3204'>0.76657E+02</wgt>
<wgt id='3205'>0.78010E+02</wgt>
<wgt id='3206'>0.77826E+02</wgt>
<wgt id='3207'>0.78226E+02</wgt>
<wgt id='3208'>0.77902E+02</wgt>
<wgt id='3209'>0.77138E+02</wgt>
<wgt id='3210'>0.77416E+02</wgt>
<wgt id='3211'>0.79118E+02</wgt>
<wgt id='3212'>0.76295E+02</wgt>
<wgt id='3213'>0.76618E+02</wgt>
<wgt id='3214'>0.75994E+02</wgt>
<wgt id='3215'>0.77460E+02</wgt>
<wgt id='3216'>0.77481E+02</wgt>
<wgt id='3217'>0.78067E+02</wgt>
<wgt id='3218'>0.77432E+02</wgt>
<wgt id='3219'>0.78043E+02</wgt>
<wgt id='3220'>0.76360E+02</wgt>
<wgt id='3221'>0.78317E+02</wgt>
<wgt id='3222'>0.78382E+02</wgt>
<wgt id='3223'>0.77429E+02</wgt>
<wgt id='3224'>0.77045E+02</wgt>
<wgt id='3225'>0.77962E+02</wgt>
<wgt id='3226'>0.77407E+02</wgt>
<wgt id='3227'>0.76418E+02</wgt>
<wgt id='3228'>0.76471E+02</wgt>
<wgt id='3229'>0.77809E+02</wgt>
<wgt id='3230'>0.77914E+02</wgt>
<wgt id='3231'>0.77892E+02</wgt>
<wgt id='3232'>0.78078E+02</wgt>
<wgt id='3233'>0.77588E+02</wgt>
<wgt id='3234'>0.78153E+02</wgt>
<wgt id='3235'>0.76666E+02</wgt>
<wgt id='3236'>0.76588E+02</wgt>
<wgt id='3237'>0.77187E+02</wgt>
<wgt id='3238'>0.77103E+02</wgt>
<wgt id='3239'>0.77227E+02</wgt>
<wgt id='3240'>0.78124E+02</wgt>
<wgt id='3241'>0.78322E+02</wgt>
<wgt id='3242'>0.76156E+02</wgt>
<wgt id='3243'>0.76117E+02</wgt>
<wgt id='3244'>0.77011E+02</wgt>
<wgt id='3245'>0.78206E+02</wgt>
<wgt id='3246'>0.77009E+02</wgt>
<wgt id='3247'>0.77292E+02</wgt>
<wgt id='3248'>0.76791E+02</wgt>
<wgt id='3249'>0.77512E+02</wgt>
<wgt id='3250'>0.78489E+02</wgt>
<wgt id='3251'>0.77711E+02</wgt>
<wgt id='3252'>0.77069E+02</wgt>
<wgt id='3253'>0.77267E+02</wgt>
<wgt id='3254'>0.77656E+02</wgt>
<wgt id='3255'>0.77597E+02</wgt>
<wgt id='3256'>0.76305E+02</wgt>
<wgt id='3257'>0.77471E+02</wgt>
<wgt id='3258'>0.78148E+02</wgt>
<wgt id='3259'>0.77507E+02</wgt>
<wgt id='3260'>0.76887E+02</wgt>
<wgt id='3261'>0.77581E+02</wgt>
<wgt id='3262'>0.76580E+02</wgt>
<wgt id='3263'>0.77400E+02</wgt>
<wgt id='3264'>0.77895E+02</wgt>
<wgt id='3265'>0.78493E+02</wgt>
<wgt id='3266'>0.77187E+02</wgt>
<wgt id='3267'>0.77421E+02</wgt>
<wgt id='3268'>0.79025E+02</wgt>
<wgt id='3269'>0.77703E+02</wgt>
<wgt id='3270'>0.77752E+02</wgt>
<wgt id='3271'>0.77741E+02</wgt>
<wgt id='3272'>0.78171E+02</wgt>
<wgt id='3273'>0.77563E+02</wgt>
<wgt id='3274'>0.77964E+02</wgt>
<wgt id='3275'>0.77308E+02</wgt>
<wgt id='3276'>0.77771E+02</wgt>
<wgt id='3277'>0.76616E+02</wgt>
<wgt id='3278'>0.77148E+02</wgt>
<wgt id='3279'>0.77977E+02</wgt>
<wgt id='3280'>0.77330E+02</wgt>
<wgt id='3281'>0.77341E+02</wgt>
<wgt id='3282'>0.77978E+02</wgt>
<wgt id='3283'>0.77462E+02</wgt>
<wgt id='3284'>0.77616E+02</wgt>
<wgt id='3285'>0.76566E+02</wgt>
<wgt id='3286'>0.77626E+02</wgt>
<wgt id='3287'>0.76429E+02</wgt>
<wgt id='3288'>0.78512E+02</wgt>
<wgt id='3289'>0.79599E+02</wgt>
<wgt id='3290'>0.78937E+02</wgt>
<wgt id='3291'>0.75793E+02</wgt>
<wgt id='3292'>0.75819E+02</wgt>
<wgt id='3293'>0.76619E+02</wgt>
<wgt id='3294'>0.75711E+02</wgt>
<wgt id='3295'>0.76704E+02</wgt>
<wgt id='3296'>0.78479E+02</wgt>
<wgt id='3297'>0.77307E+02</wgt>
<wgt id='3298'>0.77989E+02</wgt>
<wgt id='3299'>0.76607E+02</wgt>
<wgt id='3300'>0.77761E+02</wgt>
<wgt id='3301'>0.76573E+02</wgt>
<wgt id='3302'>0.78294E+02</wgt>
<wgt id='3400'>0.77312E+02</wgt>
<wgt id='3401'>0.76984E+02</wgt>
<wgt id='3402'>0.77165E+02</wgt>
<wgt id='3403'>0.78607E+02</wgt>
<wgt id='3404'>0.79206E+02</wgt>
<wgt id='3405'>0.77977E+02</wgt>
<wgt id='3406'>0.77439E+02</wgt>
<wgt id='3407'>0.76812E+02</wgt>
<wgt id='3408'>0.79531E+02</wgt>
<wgt id='3409'>0.78739E+02</wgt>
<wgt id='3410'>0.76769E+02</wgt>
<wgt id='3411'>0.78302E+02</wgt>
<wgt id='3412'>0.78420E+02</wgt>
<wgt id='3413'>0.77144E+02</wgt>
<wgt id='3414'>0.76837E+02</wgt>
<wgt id='3415'>0.77025E+02</wgt>
<wgt id='3416'>0.76496E+02</wgt>
<wgt id='3417'>0.77989E+02</wgt>
<wgt id='3418'>0.76540E+02</wgt>
<wgt id='3419'>0.76821E+02</wgt>
<wgt id='3420'>0.78082E+02</wgt>
<wgt id='3421'>0.77500E+02</wgt>
<wgt id='3422'>0.78966E+02</wgt>
<wgt id='3423'>0.77508E+02</wgt>
<wgt id='3424'>0.77581E+02</wgt>
<wgt id='3425'>0.76841E+02</wgt>
<wgt id='3426'>0.78187E+02</wgt>
<wgt id='3427'>0.77053E+02</wgt>
<wgt id='3428'>0.78997E+02</wgt>
<wgt id='3429'>0.76691E+02</wgt>
<wgt id='3430'>0.78034E+02</wgt>
<wgt id='3431'>0.77532E+02</wgt>
<wgt id='3432'>0.77434E+02</wgt>
<wgt id='3433'>0.75187E+02</wgt>
<wgt id='3434'>0.76601E+02</wgt>
<wgt id='3435'>0.76906E+02</wgt>
<wgt id='3436'>0.77514E+02</wgt>
<wgt id='3437'>0.77514E+02</wgt>
<wgt id='3438'>0.76454E+02</wgt>
<wgt id='3439'>0.78223E+02</wgt>
<wgt id='3440'>0.77352E+02</wgt>
<wgt id='3441'>0.76929E+02</wgt>
<wgt id='3442'>0.74970E+02</wgt>
<wgt id='3443'>0.76873E+02</wgt>
<wgt id='3444'>0.76864E+02</wgt>
<wgt id='3445'>0.77041E+02</wgt>
<wgt id='3446'>0.77660E+02</wgt>
<wgt id='3447'>0.79500E+02</wgt>
<wgt id='3448'>0.78273E+02</wgt>
<wgt id='3449'>0.77857E+02</wgt>
<wgt id='3450'>0.77290E+02</wgt>
<wgt id='3451'>0.79167E+02</wgt>
<wgt id='3452'>0.76834E+02</wgt>
<wgt id='3453'>0.77013E+02</wgt>
<wgt id='3454'>0.76015E+02</wgt>
<wgt id='3455'>0.78632E+02</wgt>
<wgt id='3456'>0.78008E+02</wgt>
<wgt id='3457'>0.78267E+02</wgt>
<wgt id='3458'>0.77766E+02</wgt>
<wgt id='3459'>0.76544E+02</wgt>
<wgt id='3460'>0.76795E+02</wgt>
<wgt id='3461'>0.76441E+02</wgt>
<wgt id='3462'>0.76215E+02</wgt>
<wgt id='3463'>0.76027E+02</wgt>
<wgt id='3464'>0.78151E+02</wgt>
<wgt id='3465'>0.77115E+02</wgt>
<wgt id='3466'>0.77544E+02</wgt>
<wgt id='3467'>0.77259E+02</wgt>
<wgt id='3468'>0.75336E+02</wgt>
<wgt id='3469'>0.77735E+02</wgt>
<wgt id='3470'>0.77631E+02</wgt>
<wgt id='3471'>0.77414E+02</wgt>
<wgt id='3472'>0.76802E+02</wgt>
<wgt id='3473'>0.77383E+02</wgt>
<wgt id='3474'>0.77095E+02</wgt>
<wgt id='3475'>0.77087E+02</wgt>
<wgt id='3476'>0.77969E+02</wgt>
<wgt id='3477'>0.76210E+02</wgt>
<wgt id='3478'>0.77368E+02</wgt>
<wgt id='3479'>0.79157E+02</wgt>
<wgt id='3480'>0.76797E+02</wgt>
<wgt id='3481'>0.77640E+02</wgt>
<wgt id='3482'>0.76294E+02</wgt>
<wgt id='3483'>0.75156E+02</wgt>
<wgt id='3484'>0.76855E+02</wgt>
<wgt id='3485'>0.77200E+02</wgt>
<wgt id='3486'>0.75723E+02</wgt>
<wgt id='3487'>0.77595E+02</wgt>
<wgt id='3488'>0.78930E+02</wgt>
<wgt id='3489'>0.76317E+02</wgt>
<wgt id='3490'>0.76958E+02</wgt>
<wgt id='3491'>0.77523E+02</wgt>
<wgt id='3492'>0.77899E+02</wgt>
<wgt id='3493'>0.76532E+02</wgt>
<wgt id='3494'>0.75465E+02</wgt>
<wgt id='3495'>0.77126E+02</wgt>
<wgt id='3496'>0.76136E+02</wgt>
<wgt id='3497'>0.76375E+02</wgt>
<wgt id='3498'>0.77975E+02</wgt>
<wgt id='3499'>0.77394E+02</wgt>
<wgt id='3500'>0.78277E+02</wgt>
</rwgt>
</event>
<event>
     13 322200  8.11039E+01  9.05723E+01 -1.00000E+00  1.24156E-01
      21    -1     0     0   502   503  0.000000000E+00  0.000000000E+00  9.841790137E+01  9.841790137E+01  0.000000000E+00  0.00000E+00  9.000E+00
      21    -1     0     0   503   504  0.000000000E+00  0.000000000E+00 -1.284043591E+03  1.284043591E+03  0.000000000E+00  0.00000E+00  9.000E+00
       6     2     1     2   502     0  2.427593488E+02  1.179862085E+02 -6.100267908E+02  6.868536172E+02  1.636531671E+02  0.00000E+00  9.000E+00
      -6     2     1     2     0   505 -1.666227086E+02 -1.670427548E+02 -3.760005371E+02  4.764211084E+02  1.730152008E+02  0.00000E+00  9.000E+00
      21     1     1     2   505   504 -7.613664024E+01  4.905654628E+01 -1.995983615E+02  2.191867666E+02  2.697398305E-06  0.00000E+00  9.000E+00
      24     2     3     3     0     0  2.465731947E+02  7.667105615E+01 -4.873175283E+02  5.572208515E+02  7.962356914E+01  0.00000E+00  9.000E+00
       5     1     3     3   502     0 -3.813845863E+00  4.131515234E+01 -1.227092625E+02  1.296327657E+02  5.060000000E+00  0.00000E+00 -1.000E+00
     -24     2     4     4     0     0 -3.937483277E+01 -1.309233750E+02 -1.694568832E+02  2.310998577E+02  7.746096674E+01  0.00000E+00  9.000E+00
      -5     1     4     4     0   505 -1.272478758E+02 -3.611937973E+01 -2.065436538E+02  2.453212507E+02  5.060000000E+00  0.00000E+00  1.000E+00
     -13     1     6     6     0     0  4.138385324E+01  4.690012492E+01 -1.016333210E+02  1.193381253E+02  1.057000000E-01  0.00000E+00  1.000E+00
      14     1     6     6     0     0  2.051893415E+02  2.977093123E+01 -3.856842073E+02  4.378827262E+02  0.000000000E+00  0.00000E+00 -1.000E+00
      13     1     8     8     0     0 -3.702426069E+01 -1.272395422E+02 -1.120854847E+02  1.735622771E+02  1.057000000E-01  0.00000E+00 -1.000E+00
     -14     1     8     8     0     0 -2.350572084E+00 -3.683832871E+00 -5.737139856E+01  5.753758065E+01  0.000000000E+00  0.00000E+00  1.000E+00
#rwgt            1           1   386.12022310827365               10        2494           0
<rwgt>
<wgt id='1001'>0.81104E+02</wgt>
<wgt id='1002'>0.78998E+02</wgt>
<wgt id='1003'>0.83311E+02</wgt>
<wgt id='1004'>0.72104E+02</wgt>
<wgt id='1005'>0.69786E+02</wgt>
<wgt id='1006'>0.74571E+02</wgt>
<wgt id='1007'>0.91539E+02</wgt>
<wgt id='1008'>0.89916E+02</wgt>
<wgt id='1009'>0.93176E+02</wgt>
<wgt id='2000'>0.81104E+02</wgt>
<wgt id='2001'>0.80966E+02</wgt>
<wgt id='2002'>0.80985E+02</wgt>
<wgt id='2003'>0.81031E+02</wgt>
<wgt id='2004'>0.81467E+02</wgt>
<wgt id='2005'>0.80871E+02</wgt>
<wgt id='2006'>0.81310E+02</wgt>
<wgt id='2007'>0.81225E+02</wgt>
<wgt id='2008'>0.81178E+02</wgt>
<wgt id='2009'>0.81272E+02</wgt>
<wgt id='2010'>0.81000E+02</wgt>
<wgt id='2011'>0.81086E+02</wgt>
<wgt id='2012'>0.81431E+02</wgt>
<wgt id='2013'>0.81105E+02</wgt>
<wgt id='2014'>0.81189E+02</wgt>
<wgt id='2015'>0.81182E+02</wgt>
<wgt id='2016'>0.81123E+02</wgt>
<wgt id='2017'>0.81103E+02</wgt>
<wgt id='2018'>0.80900E+02</wgt>
<wgt id='2019'>0.80687E+02</wgt>
<wgt id='2020'>0.80895E+02</wgt>
<wgt id='2021'>0.81127E+02</wgt>
<wgt id='2022'>0.81033E+02</wgt>
<wgt id='2023'>0.81218E+02</wgt>
<wgt id='2024'>0.80551E+02</wgt>
<wgt id='2025'>0.81358E+02</wgt>
<wgt id='2026'>0.81200E+02</wgt>
<wgt id='2027'>0.81461E+02</wgt>
<wgt id='2028'>0.80801E+02</wgt>
<wgt id='2029'>0.80909E+02</wgt>
<wgt id='2030'>0.81189E+02</wgt>
<wgt id='2031'>0.80731E+02</wgt>
<wgt id='2032'>0.80952E+02</wgt>
<wgt id='2033'>0.80941E+02</wgt>
<wgt id='2034'>0.80785E+02</wgt>
<wgt id='2035'>0.81194E+02</wgt>
<wgt id='2036'>0.81270E+02</wgt>
<wgt id='2037'>0.80938E+02</wgt>
<wgt id='2038'>0.81027E+02</wgt>
<wgt id='2039'>0.81013E+02</wgt>
<wgt id='2040'>0.80942E+02</wgt>
<wgt id='2041'>0.81008E+02</wgt>
<wgt id='2042'>0.81270E+02</wgt>
<wgt id='2043'>0.81135E+02</wgt>
<wgt id='2044'>0.81146E+02</wgt>
<wgt id='2045'>0.81091E+02</wgt>
<wgt id='2046'>0.80986E+02</wgt>
<wgt id='2047'>0.81135E+02</wgt>
<wgt id='2048'>0.81051E+02</wgt>
<wgt id='2049'>0.81017E+02</wgt>
<wgt id='2050'>0.81010E+02</wgt>
<wgt id='2051'>0.81013E+02</wgt>
<wgt id='2052'>0.81250E+02</wgt>
<wgt id='2053'>0.81068E+02</wgt>
<wgt id='2054'>0.81061E+02</wgt>
<wgt id='2055'>0.81045E+02</wgt>
<wgt id='2056'>0.81046E+02</wgt>
<wgt id='2057'>0.81152E+02</wgt>
<wgt id='2058'>0.81171E+02</wgt>
<wgt id='2059'>0.81099E+02</wgt>
<wgt id='2060'>0.81094E+02</wgt>
<wgt id='2061'>0.81053E+02</wgt>
<wgt id='2062'>0.81210E+02</wgt>
<wgt id='2063'>0.81124E+02</wgt>
<wgt id='2064'>0.81102E+02</wgt>
<wgt id='2065'>0.81178E+02</wgt>
<wgt id='2066'>0.81050E+02</wgt>
<wgt id='2067'>0.81057E+02</wgt>
<wgt id='2068'>0.81181E+02</wgt>
<wgt id='2069'>0.81105E+02</wgt>
<wgt id='2070'>0.81121E+02</wgt>
<wgt id='2071'>0.81078E+02</wgt>
<wgt id='2072'>0.81069E+02</wgt>
<wgt id='2073'>0.81123E+02</wgt>
<wgt id='2074'>0.81069E+02</wgt>
<wgt id='2075'>0.81080E+02</wgt>
<wgt id='2076'>0.81105E+02</wgt>
<wgt id='2077'>0.81155E+02</wgt>
<wgt id='2078'>0.81128E+02</wgt>
<wgt id='2079'>0.81082E+02</wgt>
<wgt id='2080'>0.81113E+02</wgt>
<wgt id='2081'>0.81088E+02</wgt>
<wgt id='2082'>0.81126E+02</wgt>
<wgt id='2083'>0.81169E+02</wgt>
<wgt id='2084'>0.81096E+02</wgt>
<wgt id='2085'>0.81115E+02</wgt>
<wgt id='2086'>0.81090E+02</wgt>
<wgt id='2087'>0.81119E+02</wgt>
<wgt id='2088'>0.81091E+02</wgt>
<wgt id='2089'>0.81077E+02</wgt>
<wgt id='2090'>0.81131E+02</wgt>
<wgt id='2091'>0.81117E+02</wgt>
<wgt id='2092'>0.81143E+02</wgt>
<wgt id='2093'>0.81072E+02</wgt>
<wgt id='2094'>0.81119E+02</wgt>
<wgt id='2095'>0.81133E+02</wgt>
<wgt id='2096'>0.81082E+02</wgt>
<wgt id='2097'>0.81132E+02</wgt>
<wgt id='2098'>0.81111E+02</wgt>
<wgt id='2099'>0.81119E+02</wgt>
<wgt id='2100'>0.81104E+02</wgt>
<wgt id='2101'>0.79393E+02</wgt>
<wgt id='2102'>0.82995E+02</wgt>
<wgt id='2200'>0.80955E+02</wgt>
<wgt id='2201'>0.71479E+02</wgt>
<wgt id='2202'>0.73406E+02</wgt>
<wgt id='2203'>0.75532E+02</wgt>
<wgt id='2204'>0.77019E+02</wgt>
<wgt id='2205'>0.79977E+02</wgt>
<wgt id='2206'>0.82253E+02</wgt>
<wgt id='2207'>0.84912E+02</wgt>
<wgt id='2208'>0.87290E+02</wgt>
<wgt id='2300'>0.86362E+02</wgt>
<wgt id='2301'>0.86461E+02</wgt>
<wgt id='2302'>0.86344E+02</wgt>
<wgt id='2303'>0.86315E+02</wgt>
<wgt id='2304'>0.86654E+02</wgt>
<wgt id='2305'>0.86437E+02</wgt>
<wgt id='2306'>0.86330E+02</wgt>
<wgt id='2307'>0.86419E+02</wgt>
<wgt id='2308'>0.86242E+02</wgt>
<wgt id='2309'>0.86370E+02</wgt>
<wgt id='2310'>0.86076E+02</wgt>
<wgt id='2311'>0.86322E+02</wgt>
<wgt id='2312'>0.86529E+02</wgt>
<wgt id='2313'>0.86377E+02</wgt>
<wgt id='2314'>0.86369E+02</wgt>
<wgt id='2315'>0.86278E+02</wgt>
<wgt id='2316'>0.86477E+02</wgt>
<wgt id='2317'>0.86397E+02</wgt>
<wgt id='2318'>0.86471E+02</wgt>
<wgt id='2319'>0.86289E+02</wgt>
<wgt id='2320'>0.86443E+02</wgt>
<wgt id='2321'>0.86431E+02</wgt>
<wgt id='2322'>0.86272E+02</wgt>
<wgt id='2323'>0.86235E+02</wgt>
<wgt id='2324'>0.86351E+02</wgt>
<wgt id='2325'>0.86395E+02</wgt>
<wgt id='2326'>0.86238E+02</wgt>
<wgt id='2327'>0.86446E+02</wgt>
<wgt id='2328'>0.86323E+02</wgt>
<wgt id='2329'>0.86320E+02</wgt>
<wgt id='2330'>0.86781E+02</wgt>
<wgt id='2331'>0.86542E+02</wgt>
<wgt id='2332'>0.86114E+02</wgt>
<wgt id='2333'>0.86123E+02</wgt>
<wgt id='2334'>0.86338E+02</wgt>
<wgt id='2335'>0.85782E+02</wgt>
<wgt id='2336'>0.86399E+02</wgt>
<wgt id='2337'>0.86739E+02</wgt>
<wgt id='2338'>0.86384E+02</wgt>
<wgt id='2339'>0.86387E+02</wgt>
<wgt id='2340'>0.86769E+02</wgt>
<wgt id='2341'>0.86579E+02</wgt>
<wgt id='2342'>0.86078E+02</wgt>
<wgt id='2343'>0.86094E+02</wgt>
<wgt id='2344'>0.86417E+02</wgt>
<wgt id='2345'>0.86391E+02</wgt>
<wgt id='2346'>0.86732E+02</wgt>
<wgt id='2347'>0.86326E+02</wgt>
<wgt id='2348'>0.86486E+02</wgt>
<wgt id='2349'>0.86353E+02</wgt>
<wgt id='2350'>0.86126E+02</wgt>
<wgt id='2351'>0.86524E+02</wgt>
<wgt id='2352'>0.86176E+02</wgt>
<wgt id='2353'>0.86361E+02</wgt>
<wgt id='2354'>0.86430E+02</wgt>
<wgt id='2355'>0.86156E+02</wgt>
<wgt id='2356'>0.86302E+02</wgt>
<wgt id='2357'>0.86320E+02</wgt>
<wgt id='2358'>0.86281E+02</wgt>
<wgt id='2359'>0.86289E+02</wgt>
<wgt id='2360'>0.86499E+02</wgt>
<wgt id='2361'>0.86315E+02</wgt>
<wgt id='2362'>0.86439E+02</wgt>
<wgt id='2363'>0.86282E+02</wgt>
<wgt id='2364'>0.86324E+02</wgt>
<wgt id='2365'>0.86251E+02</wgt>
<wgt id='2366'>0.86403E+02</wgt>
<wgt id='2367'>0.86178E+02</wgt>
<wgt id='2368'>0.86413E+02</wgt>
<wgt id='2369'>0.86304E+02</wgt>
<wgt id='2370'>0.86359E+02</wgt>
<wgt id='2371'>0.86300E+02</wgt>
<wgt id='2372'>0.86364E+02</wgt>
<wgt id='2373'>0.86330E+02</wgt>
<wgt id='2374'>0.86443E+02</wgt>
<wgt id='2375'>0.86400E+02</wgt>
<wgt id='2376'>0.86376E+02</wgt>
<wgt id='2377'>0.86386E+02</wgt>
<wgt id='2378'>0.86413E+02</wgt>
<wgt id='2379'>0.86281E+02</wgt>
<wgt id='2380'>0.86350E+02</wgt>
<wgt id='2381'>0.86328E+02</wgt>
<wgt id='2382'>0.86349E+02</wgt>
<wgt id='2383'>0.86273E+02</wgt>
<wgt id='2384'>0.86266E+02</wgt>
<wgt id='2385'>0.86450E+02</wgt>
<wgt id='2386'>0.86285E+02</wgt>
<wgt id='2387'>0.86280E+02</wgt>
<wgt id='2388'>0.86306E+02</wgt>
<wgt id='2389'>0.86340E+02</wgt>
<wgt id='2390'>0.86416E+02</wgt>
<wgt id='2391'>0.86375E+02</wgt>
<wgt id='2392'>0.86349E+02</wgt>
<wgt id='2393'>0.86374E+02</wgt>
<wgt id='2394'>0.86417E+02</wgt>
<wgt id='2395'>0.86361E+02</wgt>
<wgt id='2396'>0.86344E+02</wgt>
<wgt id='2397'>0.86338E+02</wgt>
<wgt id='2398'>0.86316E+02</wgt>
<wgt id='2399'>0.86362E+02</wgt>
<wgt id='2400'>0.86403E+02</wgt>
<wgt id='2401'>0.84527E+02</wgt>
<wgt id='2402'>0.88574E+02</wgt>
<wgt id='2500'>0.83049E+02</wgt>
<wgt id='2501'>0.87978E+02</wgt>
<wgt id='2600'>0.79016E+02</wgt>
<wgt id='2601'>0.78805E+02</wgt>
<wgt id='2602'>0.79030E+02</wgt>
<wgt id='2603'>0.79009E+02</wgt>
<wgt id='2604'>0.79065E+02</wgt>
<wgt id='2605'>0.78900E+02</wgt>
<wgt id='2606'>0.79045E+02</wgt>
<wgt id='2607'>0.79107E+02</wgt>
<wgt id='2608'>0.79120E+02</wgt>
<wgt id='2609'>0.78934E+02</wgt>
<wgt id='2610'>0.78949E+02</wgt>
<wgt id='2611'>0.78994E+02</wgt>
<wgt id='2612'>0.79065E+02</wgt>
<wgt id='2613'>0.79044E+02</wgt>
<wgt id='2614'>0.78939E+02</wgt>
<wgt id='2615'>0.78860E+02</wgt>
<wgt id='2616'>0.79085E+02</wgt>
<wgt id='2617'>0.78823E+02</wgt>
<wgt id='2618'>0.79055E+02</wgt>
<wgt id='2619'>0.79094E+02</wgt>
<wgt id='2620'>0.78840E+02</wgt>
<wgt id='2621'>0.79156E+02</wgt>
<wgt id='2622'>0.79349E+02</wgt>
<wgt id='2623'>0.78980E+02</wgt>
<wgt id='2624'>0.78950E+02</wgt>
<wgt id='2625'>0.79165E+02</wgt>
<wgt id='2626'>0.79078E+02</wgt>
<wgt id='2627'>0.79146E+02</wgt>
<wgt id='2628'>0.78962E+02</wgt>
<wgt id='2629'>0.79122E+02</wgt>
<wgt id='2630'>0.79248E+02</wgt>
<wgt id='2631'>0.78907E+02</wgt>
<wgt id='2632'>0.78829E+02</wgt>
<wgt id='2633'>0.78938E+02</wgt>
<wgt id='2634'>0.78891E+02</wgt>
<wgt id='2635'>0.78859E+02</wgt>
<wgt id='2636'>0.79070E+02</wgt>
<wgt id='2637'>0.79007E+02</wgt>
<wgt id='2638'>0.78971E+02</wgt>
<wgt id='2639'>0.79028E+02</wgt>
<wgt id='2640'>0.79009E+02</wgt>
<wgt id='2641'>0.78968E+02</wgt>
<wgt id='2642'>0.79017E+02</wgt>
<wgt id='2643'>0.78952E+02</wgt>
<wgt id='2644'>0.79008E+02</wgt>
<wgt id='2645'>0.78978E+02</wgt>
<wgt id='2646'>0.79050E+02</wgt>
<wgt id='2647'>0.78997E+02</wgt>
<wgt id='2648'>0.78999E+02</wgt>
<wgt id='2649'>0.79022E+02</wgt>
<wgt id='2650'>0.79032E+02</wgt>
<wgt id='2651'>0.77674E+02</wgt>
<wgt id='2652'>0.80019E+02</wgt>
<wgt id='2700'>0.76532E+02</wgt>
<wgt id='2701'>0.77674E+02</wgt>
<wgt id='2702'>0.78393E+02</wgt>
<wgt id='2703'>0.79599E+02</wgt>
<wgt id='2704'>0.80019E+02</wgt>
<wgt id='2705'>0.81401E+02</wgt>
<wgt id='2800'>0.80984E+02</wgt>
<wgt id='4000'>0.83673E+02</wgt>
<wgt id='4001'>0.83941E+02</wgt>
<wgt id='4002'>0.83707E+02</wgt>
<wgt id='4003'>0.82785E+02</wgt>
<wgt id='4004'>0.84873E+02</wgt>
<wgt id='4005'>0.84029E+02</wgt>
<wgt id='4006'>0.83533E+02</wgt>
<wgt id='4007'>0.84044E+02</wgt>
<wgt id='4008'>0.83369E+02</wgt>
<wgt id='4009'>0.83223E+02</wgt>
<wgt id='4010'>0.83720E+02</wgt>
<wgt id='4011'>0.84257E+02</wgt>
<wgt id='4012'>0.82931E+02</wgt>
<wgt id='4013'>0.83981E+02</wgt>
<wgt id='4014'>0.83550E+02</wgt>
<wgt id='4015'>0.84012E+02</wgt>
<wgt id='4016'>0.84658E+02</wgt>
<wgt id='4017'>0.83758E+02</wgt>
<wgt id='4018'>0.83619E+02</wgt>
<wgt id='4019'>0.83618E+02</wgt>
<wgt id='4020'>0.83933E+02</wgt>
<wgt id='4021'>0.83992E+02</wgt>
<wgt id='4022'>0.83122E+02</wgt>
<wgt id='4023'>0.84199E+02</wgt>
<wgt id='4024'>0.83996E+02</wgt>
<wgt id='4025'>0.83577E+02</wgt>
<wgt id='4026'>0.84069E+02</wgt>
<wgt id='4027'>0.84630E+02</wgt>
<wgt id='4028'>0.82924E+02</wgt>
<wgt id='4029'>0.84814E+02</wgt>
<wgt id='4030'>0.82725E+02</wgt>
<wgt id='4031'>0.83544E+02</wgt>
<wgt id='4032'>0.85390E+02</wgt>
<wgt id='4033'>0.84524E+02</wgt>
<wgt id='4034'>0.82953E+02</wgt>
<wgt id='4035'>0.84221E+02</wgt>
<wgt id='4036'>0.83276E+02</wgt>
<wgt id='4037'>0.86571E+02</wgt>
<wgt id='4038'>0.81497E+02</wgt>
<wgt id='4039'>0.85535E+02</wgt>
<wgt id='4040'>0.81994E+02</wgt>
<wgt id='4041'>0.84140E+02</wgt>
<wgt id='4042'>0.83149E+02</wgt>
<wgt id='4043'>0.83423E+02</wgt>
<wgt id='4044'>0.83023E+02</wgt>
<wgt id='4045'>0.83738E+02</wgt>
<wgt id='4046'>0.83708E+02</wgt>
<wgt id='4047'>0.84068E+02</wgt>
<wgt id='4048'>0.83889E+02</wgt>
<wgt id='4049'>0.83730E+02</wgt>
<wgt id='4050'>0.83729E+02</wgt>
<wgt id='4051'>0.83754E+02</wgt>
<wgt id='4052'>0.83847E+02</wgt>
<wgt id='4053'>0.83611E+02</wgt>
<wgt id='4054'>0.83096E+02</wgt>
<wgt id='4055'>0.84182E+02</wgt>
<wgt id='4056'>0.83171E+02</wgt>
<wgt id='4057'>0.82895E+02</wgt>
<wgt id='4058'>0.84187E+02</wgt>
<wgt id='4100'>0.84046E+02</wgt>
<wgt id='4101'>0.83819E+02</wgt>
<wgt id='4102'>0.83588E+02</wgt>
<wgt id='4103'>0.83538E+02</wgt>
<wgt id='4200'>0.81414E+02</wgt>
<wgt id='4201'>0.81374E+02</wgt>
<wgt id='4202'>0.81688E+02</wgt>
<wgt id='4203'>0.80958E+02</wgt>
<wgt id='4204'>0.81617E+02</wgt>
<wgt id='4205'>0.81377E+02</wgt>
<wgt id='4206'>0.81693E+02</wgt>
<wgt id='4207'>0.82037E+02</wgt>
<wgt id='4208'>0.81122E+02</wgt>
<wgt id='4209'>0.81201E+02</wgt>
<wgt id='4210'>0.81623E+02</wgt>
<wgt id='4211'>0.82004E+02</wgt>
<wgt id='4212'>0.80961E+02</wgt>
<wgt id='4213'>0.81537E+02</wgt>
<wgt id='4214'>0.81213E+02</wgt>
<wgt id='4215'>0.81420E+02</wgt>
<wgt id='4216'>0.81598E+02</wgt>
<wgt id='4217'>0.81365E+02</wgt>
<wgt id='4218'>0.81380E+02</wgt>
<wgt id='4219'>0.81112E+02</wgt>
<wgt id='4220'>0.81787E+02</wgt>
<wgt id='4221'>0.81099E+02</wgt>
<wgt id='4222'>0.82057E+02</wgt>
<wgt id='4223'>0.80465E+02</wgt>
<wgt id='4224'>0.81157E+02</wgt>
<wgt id='4225'>0.80621E+02</wgt>
<wgt id='4226'>0.82611E+02</wgt>
<wgt id='4227'>0.82252E+02</wgt>
<wgt id='4228'>0.80718E+02</wgt>
<wgt id='4229'>0.79958E+02</wgt>
<wgt id='4230'>0.82678E+02</wgt>
<wgt id='4231'>0.81873E+02</wgt>
<wgt id='4232'>0.80685E+02</wgt>
<wgt id='4233'>0.81669E+02</wgt>
<wgt id='4234'>0.80545E+02</wgt>
<wgt id='4235'>0.82398E+02</wgt>
<wgt id='4236'>0.80449E+02</wgt>
<wgt id='4237'>0.82790E+02</wgt>
<wgt id='4238'>0.79361E+02</wgt>
<wgt id='4239'>0.81120E+02</wgt>
<wgt id='4240'>0.81380E+02</wgt>
<wgt id='4241'>0.81566E+02</wgt>
<wgt id='4242'>0.81231E+02</wgt>
<wgt id='4243'>0.81760E+02</wgt>
<wgt id='4244'>0.81278E+02</wgt>
<wgt id='4245'>0.81427E+02</wgt>
<wgt id='4246'>0.80981E+02</wgt>
<wgt id='4247'>0.80685E+02</wgt>
<wgt id='4248'>0.81784E+02</wgt>
<wgt id='4249'>0.82558E+02</wgt>
<wgt id='4250'>0.80100E+02</wgt>
<wgt id='4251'>0.82642E+02</wgt>
<wgt id='4252'>0.80604E+02</wgt>
<wgt id='4253'>0.82070E+02</wgt>
<wgt id='4254'>0.80488E+02</wgt>
<wgt id='4255'>0.82923E+02</wgt>
<wgt id='4256'>0.80705E+02</wgt>
<wgt id='4257'>0.79945E+02</wgt>
<wgt id='4258'>0.81838E+02</wgt>
<wgt id='4300'>0.82666E+02</wgt>
<wgt id='4301'>0.83262E+02</wgt>
<wgt id='5000'>0.83081E+02</wgt>
<wgt id='5001'>0.83123E+02</wgt>
<wgt id='5002'>0.83027E+02</wgt>
<wgt id='5003'>0.83102E+02</wgt>
<wgt id='5004'>0.83062E+02</wgt>
<wgt id='5005'>0.83084E+02</wgt>
<wgt id='5006'>0.83077E+02</wgt>
<wgt id='5007'>0.83172E+02</wgt>
<wgt id='5008'>0.83007E+02</wgt>
<wgt id='5009'>0.83186E+02</wgt>
<wgt id='5010'>0.82973E+02</wgt>
<wgt id='5011'>0.83354E+02</wgt>
<wgt id='5012'>0.82818E+02</wgt>
<wgt id='5013'>0.83226E+02</wgt>
<wgt id='5014'>0.82979E+02</wgt>
<wgt id='5015'>0.82659E+02</wgt>
<wgt id='5016'>0.82659E+02</wgt>
<wgt id='5017'>0.83427E+02</wgt>
<wgt id='5018'>0.82848E+02</wgt>
<wgt id='5019'>0.83366E+02</wgt>
<wgt id='5020'>0.82690E+02</wgt>
<wgt id='5021'>0.83175E+02</wgt>
<wgt id='5022'>0.82933E+02</wgt>
<wgt id='5023'>0.83034E+02</wgt>
<wgt id='5024'>0.83192E+02</wgt>
<wgt id='5025'>0.82889E+02</wgt>
<wgt id='5026'>0.83293E+02</wgt>
<wgt id='5027'>0.83146E+02</wgt>
<wgt id='5028'>0.82906E+02</wgt>
<wgt id='5029'>0.84189E+02</wgt>
<wgt id='5030'>0.82459E+02</wgt>
<wgt id='5031'>0.82440E+02</wgt>
<wgt id='5032'>0.85050E+02</wgt>
<wgt id='5033'>0.82996E+02</wgt>
<wgt id='5034'>0.83173E+02</wgt>
<wgt id='5035'>0.83096E+02</wgt>
<wgt id='5036'>0.83062E+02</wgt>
<wgt id='5037'>0.82783E+02</wgt>
<wgt id='5038'>0.83249E+02</wgt>
<wgt id='5039'>0.83273E+02</wgt>
<wgt id='5040'>0.82604E+02</wgt>
<wgt id='5041'>0.82783E+02</wgt>
<wgt id='5042'>0.83403E+02</wgt>
<wgt id='5043'>0.83288E+02</wgt>
<wgt id='5044'>0.82930E+02</wgt>
<wgt id='5045'>0.83377E+02</wgt>
<wgt id='5046'>0.82574E+02</wgt>
<wgt id='5047'>0.83189E+02</wgt>
<wgt id='5048'>0.82611E+02</wgt>
<wgt id='5049'>0.82972E+02</wgt>
<wgt id='5050'>0.83342E+02</wgt>
<wgt id='5051'>0.83342E+02</wgt>
<wgt id='5052'>0.82904E+02</wgt>
<wgt id='5053'>0.83333E+02</wgt>
<wgt id='5054'>0.83238E+02</wgt>
<wgt id='5055'>0.83115E+02</wgt>
<wgt id='5056'>0.83155E+02</wgt>
<wgt id='5057'>0.82686E+02</wgt>
<wgt id='5058'>0.83359E+02</wgt>
<wgt id='5059'>0.82918E+02</wgt>
<wgt id='5060'>0.83177E+02</wgt>
<wgt id='5061'>0.83325E+02</wgt>
<wgt id='5062'>0.83356E+02</wgt>
<wgt id='5063'>0.83367E+02</wgt>
<wgt id='5064'>0.83193E+02</wgt>
<wgt id='5100'>0.83081E+02</wgt>
<wgt id='5101'>0.83071E+02</wgt>
<wgt id='6000'>0.82382E+02</wgt>
<wgt id='6001'>0.81892E+02</wgt>
<wgt id='6002'>0.81622E+02</wgt>
<wgt id='6003'>0.82095E+02</wgt>
<wgt id='6004'>0.82809E+02</wgt>
<wgt id='6005'>0.81793E+02</wgt>
<wgt id='6006'>0.82375E+02</wgt>
<wgt id='6007'>0.81735E+02</wgt>
<wgt id='6008'>0.82713E+02</wgt>
<wgt id='6009'>0.82222E+02</wgt>
<wgt id='6010'>0.82485E+02</wgt>
<wgt id='6011'>0.82329E+02</wgt>
<wgt id='6012'>0.82605E+02</wgt>
<wgt id='6013'>0.81909E+02</wgt>
<wgt id='6014'>0.81979E+02</wgt>
<wgt id='6015'>0.81506E+02</wgt>
<wgt id='6016'>0.82859E+02</wgt>
<wgt id='6017'>0.81960E+02</wgt>
<wgt id='6018'>0.81685E+02</wgt>
<wgt id='6019'>0.82518E+02</wgt>
<wgt id='6020'>0.82569E+02</wgt>
<wgt id='6021'>0.82269E+02</wgt>
<wgt id='6022'>0.82653E+02</wgt>
<wgt id='6023'>0.82337E+02</wgt>
<wgt id='6024'>0.82501E+02</wgt>
<wgt id='6025'>0.82962E+02</wgt>
<wgt id='6026'>0.82237E+02</wgt>
<wgt id='6027'>0.82433E+02</wgt>
<wgt id='6028'>0.81871E+02</wgt>
<wgt id='6029'>0.82109E+02</wgt>
<wgt id='6030'>0.81856E+02</wgt>
<wgt id='6031'>0.82080E+02</wgt>
<wgt id='6032'>0.82347E+02</wgt>
<wgt id='6033'>0.82275E+02</wgt>
<wgt id='6034'>0.82812E+02</wgt>
<wgt id='6035'>0.82459E+02</wgt>
<wgt id='6036'>0.83318E+02</wgt>
<wgt id='6037'>0.82376E+02</wgt>
<wgt id='6038'>0.82297E+02</wgt>
<wgt id='6039'>0.82677E+02</wgt>
<wgt id='6040'>0.82384E+02</wgt>
<wgt id='6041'>0.80337E+02</wgt>
<wgt id='6042'>0.82565E+02</wgt>
<wgt id='7000'>0.79992E+02</wgt>
<wgt id='7001'>0.78673E+02</wgt>
<wgt id='7002'>0.78843E+02</wgt>
<wgt id='7003'>0.78734E+02</wgt>
<wgt id='7004'>0.78783E+02</wgt>
<wgt id='7005'>0.78812E+02</wgt>
<wgt id='7006'>0.78706E+02</wgt>
<wgt id='7007'>0.79229E+02</wgt>
<wgt id='7008'>0.78301E+02</wgt>
<wgt id='7009'>0.78365E+02</wgt>
<wgt id='7010'>0.79166E+02</wgt>
<wgt id='7011'>0.79032E+02</wgt>
<wgt id='7012'>0.78493E+02</wgt>
<wgt id='7013'>0.78729E+02</wgt>
<wgt id='7014'>0.78783E+02</wgt>
<wgt id='7015'>0.78907E+02</wgt>
<wgt id='7016'>0.78427E+02</wgt>
<wgt id='7017'>0.78646E+02</wgt>
<wgt id='7018'>0.78881E+02</wgt>
<wgt id='7019'>0.79092E+02</wgt>
<wgt id='7020'>0.78444E+02</wgt>
<wgt id='7021'>0.79908E+02</wgt>
<wgt id='7022'>0.77665E+02</wgt>
<wgt id='7023'>0.77681E+02</wgt>
<wgt id='7024'>0.79845E+02</wgt>
<wgt id='7025'>0.77190E+02</wgt>
<wgt id='7026'>0.80280E+02</wgt>
<wgt id='7027'>0.78061E+02</wgt>
<wgt id='7028'>0.79527E+02</wgt>
<wgt id='8000'>0.81144E+02</wgt>
<wgt id='8001'>0.81138E+02</wgt>
<wgt id='8002'>0.81169E+02</wgt>
<wgt id='8003'>0.81143E+02</wgt>
<wgt id='8004'>0.81142E+02</wgt>
<wgt id='8005'>0.80994E+02</wgt>
<wgt id='8006'>0.81259E+02</wgt>
<wgt id='8007'>0.81345E+02</wgt>
<wgt id='8008'>0.81319E+02</wgt>
<wgt id='8009'>0.81484E+02</wgt>
<wgt id='8010'>0.81038E+02</wgt>
<wgt id='8011'>0.81186E+02</wgt>
<wgt id='8012'>0.80831E+02</wgt>
<wgt id='8013'>0.80962E+02</wgt>
<wgt id='8014'>0.81381E+02</wgt>
<wgt id='8015'>0.81096E+02</wgt>
<wgt id='8016'>0.81272E+02</wgt>
<wgt id='8017'>0.81276E+02</wgt>
<wgt id='8018'>0.81469E+02</wgt>
<wgt id='8019'>0.80981E+02</wgt>
<wgt id='8020'>0.81465E+02</wgt>
<wgt id='8021'>0.80978E+02</wgt>
<wgt id='8022'>0.81719E+02</wgt>
<wgt id='8023'>0.80826E+02</wgt>
<wgt id='8024'>0.80515E+02</wgt>
<wgt id='8025'>0.80680E+02</wgt>
<wgt id='8026'>0.81136E+02</wgt>
<wgt id='8027'>0.81318E+02</wgt>
<wgt id='8028'>0.81163E+02</wgt>
<wgt id='8029'>0.82756E+02</wgt>
<wgt id='3000'>0.81104E+02</wgt>
<wgt id='3001'>0.82431E+02</wgt>
<wgt id='3002'>0.80483E+02</wgt>
<wgt id='3003'>0.82735E+02</wgt>
<wgt id='3004'>0.82102E+02</wgt>
<wgt id='3005'>0.82145E+02</wgt>
<wgt id='3006'>0.81865E+02</wgt>
<wgt id='3007'>0.78854E+02</wgt>
<wgt id='3008'>0.78563E+02</wgt>
<wgt id='3009'>0.80601E+02</wgt>
<wgt id='3010'>0.85453E+02</wgt>
<wgt id='3011'>0.82078E+02</wgt>
<wgt id='3012'>0.79490E+02</wgt>
<wgt id='3013'>0.80268E+02</wgt>
<wgt id='3014'>0.80455E+02</wgt>
<wgt id='3015'>0.79388E+02</wgt>
<wgt id='3016'>0.80810E+02</wgt>
<wgt id='3017'>0.81631E+02</wgt>
<wgt id='3018'>0.79137E+02</wgt>
<wgt id='3019'>0.80006E+02</wgt>
<wgt id='3020'>0.80519E+02</wgt>
<wgt id='3021'>0.79489E+02</wgt>
<wgt id='3022'>0.79251E+02</wgt>
<wgt id='3023'>0.79591E+02</wgt>
<wgt id='3024'>0.80874E+02</wgt>
<wgt id='3025'>0.79287E+02</wgt>
<wgt id='3026'>0.79982E+02</wgt>
<wgt id='3027'>0.82920E+02</wgt>
<wgt id='3028'>0.78596E+02</wgt>
<wgt id='3029'>0.81411E+02</wgt>
<wgt id='3030'>0.80796E+02</wgt>
<wgt id='3031'>0.83292E+02</wgt>
<wgt id='3032'>0.79098E+02</wgt>
<wgt id='3033'>0.79852E+02</wgt>
<wgt id='3034'>0.82016E+02</wgt>
<wgt id='3035'>0.83465E+02</wgt>
<wgt id='3036'>0.81333E+02</wgt>
<wgt id='3037'>0.80161E+02</wgt>
<wgt id='3038'>0.81464E+02</wgt>
<wgt id='3039'>0.80856E+02</wgt>
<wgt id='3040'>0.80782E+02</wgt>
<wgt id='3041'>0.81652E+02</wgt>
<wgt id='3042'>0.81324E+02</wgt>
<wgt id='3043'>0.82529E+02</wgt>
<wgt id='3044'>0.82471E+02</wgt>
<wgt id='3045'>0.81488E+02</wgt>
<wgt id='3046'>0.81030E+02</wgt>
<wgt id='3047'>0.81438E+02</wgt>
<wgt id='3048'>0.81924E+02</wgt>
<wgt id='3049'>0.81270E+02</wgt>
<wgt id='3050'>0.82990E+02</wgt>
<wgt id='3051'>0.80466E+02</wgt>
<wgt id='3052'>0.79764E+02</wgt>
<wgt id='3053'>0.82686E+02</wgt>
<wgt id='3054'>0.79115E+02</wgt>
<wgt id='3055'>0.80918E+02</wgt>
<wgt id='3056'>0.80643E+02</wgt>
<wgt id='3057'>0.79540E+02</wgt>
<wgt id='3058'>0.82514E+02</wgt>
<wgt id='3059'>0.80116E+02</wgt>
<wgt id='3060'>0.80232E+02</wgt>
<wgt id='3061'>0.80556E+02</wgt>
<wgt id='3062'>0.81741E+02</wgt>
<wgt id='3063'>0.80943E+02</wgt>
<wgt id='3064'>0.82604E+02</wgt>
<wgt id='3065'>0.79003E+02</wgt>
<wgt id='3066'>0.82709E+02</wgt>
<wgt id='3067'>0.80624E+02</wgt>
<wgt id='3068'>0.80277E+02</wgt>
<wgt id='3069'>0.80406E+02</wgt>
<wgt id='3070'>0.82071E+02</wgt>
<wgt id='3071'>0.81447E+02</wgt>
<wgt id='3072'>0.82047E+02</wgt>
<wgt id='3073'>0.80828E+02</wgt>
<wgt id='3074'>0.80455E+02</wgt>
<wgt id='3075'>0.81579E+02</wgt>
<wgt id='3076'>0.83782E+02</wgt>
<wgt id='3077'>0.82023E+02</wgt>
<wgt id='3078'>0.80108E+02</wgt>
<wgt id='3079'>0.81231E+02</wgt>
<wgt id='3080'>0.84214E+02</wgt>
<wgt id='3081'>0.81915E+02</wgt>
<wgt id='3082'>0.80810E+02</wgt>
<wgt id='3083'>0.81513E+02</wgt>
<wgt id='3084'>0.79945E+02</wgt>
<wgt id='3085'>0.80772E+02</wgt>
<wgt id='3086'>0.82784E+02</wgt>
<wgt id='3087'>0.80049E+02</wgt>
<wgt id='3088'>0.81495E+02</wgt>
<wgt id='3089'>0.83603E+02</wgt>
<wgt id='3090'>0.80565E+02</wgt>
<wgt id='3091'>0.80404E+02</wgt>
<wgt id='3092'>0.81805E+02</wgt>
<wgt id='3093'>0.81290E+02</wgt>
<wgt id='3094'>0.81808E+02</wgt>
<wgt id='3095'>0.78692E+02</wgt>
<wgt id='3096'>0.80658E+02</wgt>
<wgt id='3097'>0.85203E+02</wgt>
<wgt id='3098'>0.81018E+02</wgt>
<wgt id='3099'>0.79229E+02</wgt>
<wgt id='3100'>0.80064E+02</wgt>
<wgt id='3200'>0.79138E+02</wgt>
<wgt id='3201'>0.78756E+02</wgt>
<wgt id='3202'>0.77195E+02</wgt>
<wgt id='3203'>0.79596E+02</wgt>
<wgt id='3204'>0.78903E+02</wgt>
<wgt id='3205'>0.79587E+02</wgt>
<wgt id='3206'>0.80259E+02</wgt>
<wgt id='3207'>0.79835E+02</wgt>
<wgt id='3208'>0.79112E+02</wgt>
<wgt id='3209'>0.79157E+02</wgt>
<wgt id='3210'>0.79277E+02</wgt>
<wgt id='3211'>0.79304E+02</wgt>
<wgt id='3212'>0.79299E+02</wgt>
<wgt id='3213'>0.79728E+02</wgt>
<wgt id='3214'>0.78873E+02</wgt>
<wgt id='3215'>0.79013E+02</wgt>
<wgt id='3216'>0.79797E+02</wgt>
<wgt id='3217'>0.79458E+02</wgt>
<wgt id='3218'>0.80310E+02</wgt>
<wgt id='3219'>0.78795E+02</wgt>
<wgt id='3220'>0.78225E+02</wgt>
<wgt id='3221'>0.78929E+02</wgt>
<wgt id='3222'>0.79939E+02</wgt>
<wgt id='3223'>0.79837E+02</wgt>
<wgt id='3224'>0.78807E+02</wgt>
<wgt id='3225'>0.79875E+02</wgt>
<wgt id='3226'>0.78302E+02</wgt>
<wgt id='3227'>0.78314E+02</wgt>
<wgt id='3228'>0.78514E+02</wgt>
<wgt id='3229'>0.80172E+02</wgt>
<wgt id='3230'>0.79428E+02</wgt>
<wgt id='3231'>0.79406E+02</wgt>
<wgt id='3232'>0.79511E+02</wgt>
<wgt id='3233'>0.79317E+02</wgt>
<wgt id='3234'>0.77853E+02</wgt>
<wgt id='3235'>0.79200E+02</wgt>
<wgt id='3236'>0.79826E+02</wgt>
<wgt id='3237'>0.79354E+02</wgt>
<wgt id='3238'>0.78757E+02</wgt>
<wgt id='3239'>0.78167E+02</wgt>
<wgt id='3240'>0.77765E+02</wgt>
<wgt id='3241'>0.80042E+02</wgt>
<wgt id='3242'>0.79524E+02</wgt>
<wgt id='3243'>0.79560E+02</wgt>
<wgt id='3244'>0.79567E+02</wgt>
<wgt id='3245'>0.79946E+02</wgt>
<wgt id='3246'>0.77594E+02</wgt>
<wgt id='3247'>0.78046E+02</wgt>
<wgt id='3248'>0.78951E+02</wgt>
<wgt id='3249'>0.78054E+02</wgt>
<wgt id='3250'>0.78712E+02</wgt>
<wgt id='3251'>0.78768E+02</wgt>
<wgt id='3252'>0.80245E+02</wgt>
<wgt id='3253'>0.79508E+02</wgt>
<wgt id='3254'>0.78818E+02</wgt>
<wgt id='3255'>0.78014E+02</wgt>
<wgt id='3256'>0.79173E+02</wgt>
<wgt id='3257'>0.78886E+02</wgt>
<wgt id='3258'>0.78315E+02</wgt>
<wgt id='3259'>0.78104E+02</wgt>
<wgt id='3260'>0.79188E+02</wgt>
<wgt id='3261'>0.78412E+02</wgt>
<wgt id='3262'>0.80386E+02</wgt>
<wgt id='3263'>0.79458E+02</wgt>
<wgt id='3264'>0.79505E+02</wgt>
<wgt id='3265'>0.79864E+02</wgt>
<wgt id='3266'>0.79354E+02</wgt>
<wgt id='3267'>0.79270E+02</wgt>
<wgt id='3268'>0.78042E+02</wgt>
<wgt id='3269'>0.78789E+02</wgt>
<wgt id='3270'>0.80654E+02</wgt>
<wgt id='3271'>0.78982E+02</wgt>
<wgt id='3272'>0.79299E+02</wgt>
<wgt id='3273'>0.79291E+02</wgt>
<wgt id='3274'>0.78731E+02</wgt>
<wgt id='3275'>0.80037E+02</wgt>
<wgt id='3276'>0.78295E+02</wgt>
<wgt id='3277'>0.78830E+02</wgt>
<wgt id='3278'>0.80168E+02</wgt>
<wgt id='3279'>0.79399E+02</wgt>
<wgt id='3280'>0.79044E+02</wgt>
<wgt id='3281'>0.80088E+02</wgt>
<wgt id='3282'>0.79348E+02</wgt>
<wgt id='3283'>0.79524E+02</wgt>
<wgt id='3284'>0.78403E+02</wgt>
<wgt id='3285'>0.79316E+02</wgt>
<wgt id='3286'>0.78001E+02</wgt>
<wgt id='3287'>0.80998E+02</wgt>
<wgt id='3288'>0.78176E+02</wgt>
<wgt id='3289'>0.80067E+02</wgt>
<wgt id='3290'>0.78164E+02</wgt>
<wgt id='3291'>0.78393E+02</wgt>
<wgt id='3292'>0.78629E+02</wgt>
<wgt id='3293'>0.79054E+02</wgt>
<wgt id='3294'>0.79332E+02</wgt>
<wgt id='3295'>0.78639E+02</wgt>
<wgt id='3296'>0.79889E+02</wgt>
<wgt id='3297'>0.79260E+02</wgt>
<wgt id='3298'>0.78014E+02</wgt>
<wgt id='3299'>0.79584E+02</wgt>
<wgt id='3300'>0.80233E+02</wgt>
<wgt id='3301'>0.77674E+02</wgt>
<wgt id='3302'>0.80019E+02</wgt>
<wgt id='3400'>0.78538E+02</wgt>
<wgt id='3401'>0.79169E+02</wgt>
<wgt id='3402'>0.76932E+02</wgt>
<wgt id='3403'>0.79161E+02</wgt>
<wgt id='3404'>0.79738E+02</wgt>
<wgt id='3405'>0.79112E+02</wgt>
<wgt id='3406'>0.79715E+02</wgt>
<wgt id='3407'>0.78424E+02</wgt>
<wgt id='3408'>0.79137E+02</wgt>
<wgt id='3409'>0.78802E+02</wgt>
<wgt id='3410'>0.79363E+02</wgt>
<wgt id='3411'>0.79834E+02</wgt>
<wgt id='3412'>0.79277E+02</wgt>
<wgt id='3413'>0.78213E+02</wgt>
<wgt id='3414'>0.78136E+02</wgt>
<wgt id='3415'>0.78605E+02</wgt>
<wgt id='3416'>0.78288E+02</wgt>
<wgt id='3417'>0.79024E+02</wgt>
<wgt id='3418'>0.77961E+02</wgt>
<wgt id='3419'>0.77993E+02</wgt>
<wgt id='3420'>0.78188E+02</wgt>
<wgt id='3421'>0.77970E+02</wgt>
<wgt id='3422'>0.77901E+02</wgt>
<wgt id='3423'>0.80092E+02</wgt>
<wgt id='3424'>0.78935E+02</wgt>
<wgt id='3425'>0.77898E+02</wgt>
<wgt id='3426'>0.77986E+02</wgt>
<wgt id='3427'>0.77443E+02</wgt>
<wgt id='3428'>0.78451E+02</wgt>
<wgt id='3429'>0.77620E+02</wgt>
<wgt id='3430'>0.78172E+02</wgt>
<wgt id='3431'>0.78972E+02</wgt>
<wgt id='3432'>0.79681E+02</wgt>
<wgt id='3433'>0.78307E+02</wgt>
<wgt id='3434'>0.79982E+02</wgt>
<wgt id='3435'>0.79752E+02</wgt>
<wgt id='3436'>0.78522E+02</wgt>
<wgt id='3437'>0.79761E+02</wgt>
<wgt id='3438'>0.77937E+02</wgt>
<wgt id='3439'>0.76713E+02</wgt>
<wgt id='3440'>0.79036E+02</wgt>
<wgt id='3441'>0.78936E+02</wgt>
<wgt id='3442'>0.78146E+02</wgt>
<wgt id='3443'>0.79220E+02</wgt>
<wgt id='3444'>0.77652E+02</wgt>
<wgt id='3445'>0.77729E+02</wgt>
<wgt id='3446'>0.78898E+02</wgt>
<wgt id='3447'>0.78549E+02</wgt>
<wgt id='3448'>0.79801E+02</wgt>
<wgt id='3449'>0.78865E+02</wgt>
<wgt id='3450'>0.77950E+02</wgt>
<wgt id='3451'>0.79254E+02</wgt>
<wgt id='3452'>0.78135E+02</wgt>
<wgt id='3453'>0.77018E+02</wgt>
<wgt id='3454'>0.78550E+02</wgt>
<wgt id='3455'>0.79371E+02</wgt>
<wgt id='3456'>0.78547E+02</wgt>
<wgt id='3457'>0.78642E+02</wgt>
<wgt id='3458'>0.77912E+02</wgt>
<wgt id='3459'>0.78630E+02</wgt>
<wgt id='3460'>0.78289E+02</wgt>
<wgt id='3461'>0.77635E+02</wgt>
<wgt id='3462'>0.78867E+02</wgt>
<wgt id='3463'>0.77472E+02</wgt>
<wgt id='3464'>0.78479E+02</wgt>
<wgt id='3465'>0.79134E+02</wgt>
<wgt id='3466'>0.79273E+02</wgt>
<wgt id='3467'>0.78034E+02</wgt>
<wgt id='3468'>0.78010E+02</wgt>
<wgt id='3469'>0.77271E+02</wgt>
<wgt id='3470'>0.77849E+02</wgt>
<wgt id='3471'>0.77974E+02</wgt>
<wgt id='3472'>0.76832E+02</wgt>
<wgt id='3473'>0.80411E+02</wgt>
<wgt id='3474'>0.77775E+02</wgt>
<wgt id='3475'>0.79072E+02</wgt>
<wgt id='3476'>0.78485E+02</wgt>
<wgt id='3477'>0.77285E+02</wgt>
<wgt id='3478'>0.79656E+02</wgt>
<wgt id='3479'>0.78147E+02</wgt>
<wgt id='3480'>0.78921E+02</wgt>
<wgt id='3481'>0.79565E+02</wgt>
<wgt id='3482'>0.78829E+02</wgt>
<wgt id='3483'>0.78491E+02</wgt>
<wgt id='3484'>0.77844E+02</wgt>
<wgt id='3485'>0.77773E+02</wgt>
<wgt id='3486'>0.76468E+02</wgt>
<wgt id='3487'>0.77555E+02</wgt>
<wgt id='3488'>0.78295E+02</wgt>
<wgt id='3489'>0.77418E+02</wgt>
<wgt id='3490'>0.79547E+02</wgt>
<wgt id='3491'>0.80156E+02</wgt>
<wgt id='3492'>0.78190E+02</wgt>
<wgt id='3493'>0.80094E+02</wgt>
<wgt id='3494'>0.76819E+02</wgt>
<wgt id='3495'>0.79616E+02</wgt>
<wgt id='3496'>0.77497E+02</wgt>
<wgt id='3497'>0.78354E+02</wgt>
<wgt id='3498'>0.79731E+02</wgt>
<wgt id='3499'>0.78400E+02</wgt>
<wgt id='3500'>0.80256E+02</wgt>
</rwgt>
</event>
<event>
     13 322200  8.11039E+01  3.97138E+01 -1.00000E+00  1.42846E-01
      21    -1     0     0   512   513  0.000000000E+00  0.000000000E+00  6.931798046E+01  6.931798046E+01  0.000000000E+00  0.00000E+00  9.000E+00
       2    -1     0     0   502     0  0.000000000E+00  0.000000000E+00 -1.635282629E+03  1.635282629E+03  0.000000000E+00  0.00000E+00  9.000E+00
       6     2     1     2   502     0 -6.304090124E+01  2.406826737E+02 -4.341348070E+02  5.294178471E+02  1.729390688E+02  0.00000E+00  9.000E+00
      -6     2     1     2     0   513  3.639607832E+01 -2.112337348E+02 -9.595488856E+02  9.983835586E+02  1.734684436E+02  0.00000E+00  9.000E+00
       2     1     1     2   512     0  2.664482291E+01 -2.944893892E+01 -1.722809564E+02  1.767992043E+02  2.100000000E-01  0.00000E+00  9.000E+00
      24     2     3     3     0     0 -9.461373004E+00  1.775053939E+02 -3.298527898E+02  3.961419031E+02  1.285607328E+02  0.00000E+00  9.000E+00
       5     1     3     3   502     0 -5.357952823E+01  6.317727980E+01 -1.042820171E+02  1.332759439E+02  5.060000000E+00  0.00000E+00 -1.000E+00
     -24     2     4     4     0     0 -3.003195628E+01 -9.805748808E+01 -5.875237807E+02  6.038587445E+02  9.457272923E+01  0.00000E+00  9.000E+00
      -5     1     4     4     0   513  6.642803461E+01 -1.131762467E+02 -3.720251050E+02  3.945248141E+02  5.060000000E+00  0.00000E+00  1.000E+00
     -13     1     6     6     0     0  3.548587026E+01  7.291039873E+01 -5.320100979E+01  9.698212127E+01  1.057000000E-01  0.00000E+00  1.000E+00
      14     1     6     6     0     0 -4.494724327E+01  1.045949951E+02 -2.766517800E+02  2.991597819E+02  0.000000000E+00  0.00000E+00 -1.000E+00
      13     1     8     8     0     0  2.993379125E+01 -3.622448013E+01 -3.017182968E+02  3.053558360E+02  1.057000000E-01  0.00000E+00 -1.000E+00
     -14     1     8     8     0     0 -5.996574754E+01 -6.183300795E+01 -2.858054839E+02  2.985029085E+02  0.000000000E+00  0.00000E+00  1.000E+00
#rwgt            1           5   54.507870148095677               10        2835           0
<rwgt>
<wgt id='1001'>0.81104E+02</wgt>
<wgt id='1002'>0.76509E+02</wgt>
<wgt id='1003'>0.85870E+02</wgt>
<wgt id='1004'>0.76139E+02</wgt>
<wgt id='1005'>0.72377E+02</wgt>
<wgt id='1006'>0.79991E+02</wgt>
<wgt id='1007'>0.84679E+02</wgt>
<wgt id='1008'>0.78945E+02</wgt>
<wgt id='1009'>0.90709E+02</wgt>
<wgt id='2000'>0.81104E+02</wgt>
<wgt id='2001'>0.81047E+02</wgt>
<wgt id='2002'>0.81041E+02</wgt>
<wgt id='2003'>0.80977E+02</wgt>
<wgt id='2004'>0.81034E+02</wgt>
<wgt id='2005'>0.81249E+02</wgt>
<wgt id='2006'>0.80856E+02</wgt>
<wgt id='2007'>0.81124E+02</wgt>
<wgt id='2008'>0.80827E+02</wgt>
<wgt id='2009'>0.81570E+02</wgt>
<wgt id='2010'>0.80734E+02</wgt>
<wgt id='2011'>0.81111E+02</wgt>
<wgt id='2012'>0.80954E+02</wgt>
<wgt id='2013'>0.81150E+02</wgt>
<wgt id='2014'>0.81342E+02</wgt>
<wgt id='2015'>0.81474E+02</wgt>
<wgt id='2016'>0.80986E+02</wgt>
<wgt id='2017'>0.81036E+02</wgt>
<wgt id='2018'>0.80660E+02</wgt>
<wgt id='2019'>0.81041E+02</wgt>
<wgt id='2020'>0.80829E+02</wgt>
<wgt id='2021'>0.80836E+02</wgt>
<wgt id='2022'>0.81600E+02</wgt>
<wgt id='2023'>0.80755E+02</wgt>
<wgt id='2024'>0.80820E+02</wgt>
<wgt id='2025'>0.80924E+02</wgt>
<wgt id='2026'>0.81078E+02</wgt>
<wgt id='2027'>0.81031E+02</wgt>
<wgt id='2028'>0.81433E+02</wgt>
<wgt id='2029'>0.81597E+02</wgt>
<wgt id='2030'>0.81227E+02</wgt>
<wgt id='2031'>0.82000E+02</wgt>
<wgt id='2032'>0.81099E+02</wgt>
<wgt id='2033'>0.81237E+02</wgt>
<wgt id='2034'>0.81343E+02</wgt>
<wgt id='2035'>0.80964E+02</wgt>
<wgt id='2036'>0.80720E+02</wgt>
<wgt id='2037'>0.81676E+02</wgt>
<wgt id='2038'>0.81142E+02</wgt>
<wgt id='2039'>0.81103E+02</wgt>
<wgt id='2040'>0.81531E+02</wgt>
<wgt id='2041'>0.81300E+02</wgt>
<wgt id='2042'>0.81153E+02</wgt>
<wgt id='2043'>0.81174E+02</wgt>
<wgt id='2044'>0.81007E+02</wgt>
<wgt id='2045'>0.81077E+02</wgt>
<wgt id='2046'>0.80915E+02</wgt>
<wgt id='2047'>0.80990E+02</wgt>
<wgt id='2048'>0.80972E+02</wgt>
<wgt id='2049'>0.81036E+02</wgt>
<wgt id='2050'>0.81068E+02</wgt>
<wgt id='2051'>0.80998E+02</wgt>
<wgt id='2052'>0.81278E+02</wgt>
<wgt id='2053'>0.80953E+02</wgt>
<wgt id='2054'>0.81151E+02</wgt>
<wgt id='2055'>0.81180E+02</wgt>
<wgt id='2056'>0.81359E+02</wgt>
<wgt id='2057'>0.81248E+02</wgt>
<wgt id='2058'>0.81060E+02</wgt>
<wgt id='2059'>0.81260E+02</wgt>
<wgt id='2060'>0.81160E+02</wgt>
<wgt id='2061'>0.81066E+02</wgt>
<wgt id='2062'>0.81076E+02</wgt>
<wgt id='2063'>0.81178E+02</wgt>
<wgt id='2064'>0.81227E+02</wgt>
<wgt id='2065'>0.81087E+02</wgt>
<wgt id='2066'>0.80980E+02</wgt>
<wgt id='2067'>0.81211E+02</wgt>
<wgt id='2068'>0.80983E+02</wgt>
<wgt id='2069'>0.81131E+02</wgt>
<wgt id='2070'>0.81039E+02</wgt>
<wgt id='2071'>0.81129E+02</wgt>
<wgt id='2072'>0.81125E+02</wgt>
<wgt id='2073'>0.81292E+02</wgt>
<wgt id='2074'>0.81126E+02</wgt>
<wgt id='2075'>0.81133E+02</wgt>
<wgt id='2076'>0.81057E+02</wgt>
<wgt id='2077'>0.81011E+02</wgt>
<wgt id='2078'>0.81063E+02</wgt>
<wgt id='2079'>0.81090E+02</wgt>
<wgt id='2080'>0.81122E+02</wgt>
<wgt id='2081'>0.81095E+02</wgt>
<wgt id='2082'>0.81122E+02</wgt>
<wgt id='2083'>0.81197E+02</wgt>
<wgt id='2084'>0.81080E+02</wgt>
<wgt id='2085'>0.81092E+02</wgt>
<wgt id='2086'>0.81072E+02</wgt>
<wgt id='2087'>0.81161E+02</wgt>
<wgt id='2088'>0.81104E+02</wgt>
<wgt id='2089'>0.81163E+02</wgt>
<wgt id='2090'>0.81124E+02</wgt>
<wgt id='2091'>0.81084E+02</wgt>
<wgt id='2092'>0.81176E+02</wgt>
<wgt id='2093'>0.81088E+02</wgt>
<wgt id='2094'>0.81088E+02</wgt>
<wgt id='2095'>0.81132E+02</wgt>
<wgt id='2096'>0.81112E+02</wgt>
<wgt id='2097'>0.81130E+02</wgt>
<wgt id='2098'>0.81090E+02</wgt>
<wgt id='2099'>0.81151E+02</wgt>
<wgt id='2100'>0.81104E+02</wgt>
<wgt id='2101'>0.78573E+02</wgt>
<wgt id='2102'>0.83907E+02</wgt>
<wgt id='2200'>0.81228E+02</wgt>
<wgt id='2201'>0.68679E+02</wgt>
<wgt id='2202'>0.71006E+02</wgt>
<wgt id='2203'>0.73858E+02</wgt>
<wgt id='2204'>0.76403E+02</wgt>
<wgt id='2205'>0.80098E+02</wgt>
<wgt id='2206'>0.82434E+02</wgt>
<wgt id='2207'>0.86360E+02</wgt>
<wgt id='2208'>0.88858E+02</wgt>
<wgt id='2300'>0.81646E+02</wgt>
<wgt id='2301'>0.81670E+02</wgt>
<wgt id='2302'>0.81606E+02</wgt>
<wgt id='2303'>0.81753E+02</wgt>
<wgt id='2304'>0.81663E+02</wgt>
<wgt id='2305'>0.81774E+02</wgt>
<wgt id='2306'>0.81628E+02</wgt>
<wgt id='2307'>0.81847E+02</wgt>
<wgt id='2308'>0.81469E+02</wgt>
<wgt id='2309'>0.81903E+02</wgt>
<wgt id='2310'>0.81275E+02</wgt>
<wgt id='2311'>0.81569E+02</wgt>
<wgt id='2312'>0.81626E+02</wgt>
<wgt id='2313'>0.81639E+02</wgt>
<wgt id='2314'>0.82147E+02</wgt>
<wgt id='2315'>0.81132E+02</wgt>
<wgt id='2316'>0.81782E+02</wgt>
<wgt id='2317'>0.81580E+02</wgt>
<wgt id='2318'>0.81758E+02</wgt>
<wgt id='2319'>0.81410E+02</wgt>
<wgt id='2320'>0.81039E+02</wgt>
<wgt id='2321'>0.82136E+02</wgt>
<wgt id='2322'>0.81853E+02</wgt>
<wgt id='2323'>0.82017E+02</wgt>
<wgt id='2324'>0.81614E+02</wgt>
<wgt id='2325'>0.81055E+02</wgt>
<wgt id='2326'>0.81525E+02</wgt>
<wgt id='2327'>0.81759E+02</wgt>
<wgt id='2328'>0.81953E+02</wgt>
<wgt id='2329'>0.82022E+02</wgt>
<wgt id='2330'>0.80275E+02</wgt>
<wgt id='2331'>0.81585E+02</wgt>
<wgt id='2332'>0.81473E+02</wgt>
<wgt id='2333'>0.82139E+02</wgt>
<wgt id='2334'>0.81788E+02</wgt>
<wgt id='2335'>0.81849E+02</wgt>
<wgt id='2336'>0.81768E+02</wgt>
<wgt id='2337'>0.81248E+02</wgt>
<wgt id='2338'>0.81714E+02</wgt>
<wgt id='2339'>0.81609E+02</wgt>
<wgt id='2340'>0.81685E+02</wgt>
<wgt id='2341'>0.81541E+02</wgt>
<wgt id='2342'>0.81770E+02</wgt>
<wgt id='2343'>0.81353E+02</wgt>
<wgt id='2344'>0.81643E+02</wgt>
<wgt id='2345'>0.81766E+02</wgt>
<wgt id='2346'>0.81671E+02</wgt>
<wgt id='2347'>0.81383E+02</wgt>
<wgt id='2348'>0.81597E+02</wgt>
<wgt id='2349'>0.81812E+02</wgt>
<wgt id='2350'>0.81583E+02</wgt>
<wgt id='2351'>0.81752E+02</wgt>
<wgt id='2352'>0.81749E+02</wgt>
<wgt id='2353'>0.81592E+02</wgt>
<wgt id='2354'>0.81517E+02</wgt>
<wgt id='2355'>0.81520E+02</wgt>
<wgt id='2356'>0.81774E+02</wgt>
<wgt id='2357'>0.81693E+02</wgt>
<wgt id='2358'>0.81613E+02</wgt>
<wgt id='2359'>0.81588E+02</wgt>
<wgt id='2360'>0.81661E+02</wgt>
<wgt id='2361'>0.81660E+02</wgt>
<wgt id='2362'>0.81538E+02</wgt>
<wgt id='2363'>0.81665E+02</wgt>
<wgt id='2364'>0.81615E+02</wgt>
<wgt id='2365'>0.81592E+02</wgt>
<wgt id='2366'>0.81648E+02</wgt>
<wgt id='2367'>0.81547E+02</wgt>
<wgt id='2368'>0.81734E+02</wgt>
<wgt id='2369'>0.81620E+02</wgt>
<wgt id='2370'>0.81503E+02</wgt>
<wgt id='2371'>0.81627E+02</wgt>
<wgt id='2372'>0.81521E+02</wgt>
<wgt id='2373'>0.81627E+02</wgt>
<wgt id='2374'>0.81735E+02</wgt>
<wgt id='2375'>0.81655E+02</wgt>
<wgt id='2376'>0.81678E+02</wgt>
<wgt id='2377'>0.81559E+02</wgt>
<wgt id='2378'>0.81713E+02</wgt>
<wgt id='2379'>0.81600E+02</wgt>
<wgt id='2380'>0.81666E+02</wgt>
<wgt id='2381'>0.81709E+02</wgt>
<wgt id='2382'>0.81672E+02</wgt>
<wgt id='2383'>0.81682E+02</wgt>
<wgt id='2384'>0.81682E+02</wgt>
<wgt id='2385'>0.81767E+02</wgt>
<wgt id='2386'>0.81620E+02</wgt>
<wgt id='2387'>0.81642E+02</wgt>
<wgt id='2388'>0.81642E+02</wgt>
<wgt id='2389'>0.81717E+02</wgt>
<wgt id='2390'>0.81644E+02</wgt>
<wgt id='2391'>0.81651E+02</wgt>
<wgt id='2392'>0.81661E+02</wgt>
<wgt id='2393'>0.81662E+02</wgt>
<wgt id='2394'>0.81637E+02</wgt>
<wgt id='2395'>0.81626E+02</wgt>
<wgt id='2396'>0.81684E+02</wgt>
<wgt id='2397'>0.81630E+02</wgt>
<wgt id='2398'>0.81635E+02</wgt>
<wgt id='2399'>0.81710E+02</wgt>
<wgt id='2400'>0.81707E+02</wgt>
<wgt id='2401'>0.79048E+02</wgt>
<wgt id='2402'>0.84412E+02</wgt>
<wgt id='2500'>0.78808E+02</wgt>
<wgt id='2501'>0.78317E+02</wgt>
<wgt id='2600'>0.81094E+02</wgt>
<wgt id='2601'>0.80906E+02</wgt>
<wgt id='2602'>0.81213E+02</wgt>
<wgt id='2603'>0.81080E+02</wgt>
<wgt id='2604'>0.81277E+02</wgt>
<wgt id='2605'>0.81234E+02</wgt>
<wgt id='2606'>0.80619E+02</wgt>
<wgt id='2607'>0.80967E+02</wgt>
<wgt id='2608'>0.81661E+02</wgt>
<wgt id='2609'>0.80968E+02</wgt>
<wgt id='2610'>0.81036E+02</wgt>
<wgt id='2611'>0.80739E+02</wgt>
<wgt id='2612'>0.81136E+02</wgt>
<wgt id='2613'>0.81038E+02</wgt>
<wgt id='2614'>0.80989E+02</wgt>
<wgt id='2615'>0.80808E+02</wgt>
<wgt id='2616'>0.80697E+02</wgt>
<wgt id='2617'>0.81454E+02</wgt>
<wgt id='2618'>0.81155E+02</wgt>
<wgt id='2619'>0.80674E+02</wgt>
<wgt id='2620'>0.81101E+02</wgt>
<wgt id='2621'>0.81125E+02</wgt>
<wgt id='2622'>0.80997E+02</wgt>
<wgt id='2623'>0.81164E+02</wgt>
<wgt id='2624'>0.80989E+02</wgt>
<wgt id='2625'>0.80880E+02</wgt>
<wgt id='2626'>0.81206E+02</wgt>
<wgt id='2627'>0.81064E+02</wgt>
<wgt id='2628'>0.81065E+02</wgt>
<wgt id='2629'>0.81096E+02</wgt>
<wgt id='2630'>0.81096E+02</wgt>
<wgt id='2631'>0.81130E+02</wgt>
<wgt id='2632'>0.81036E+02</wgt>
<wgt id='2633'>0.81068E+02</wgt>
<wgt id='2634'>0.81022E+02</wgt>
<wgt id='2635'>0.81052E+02</wgt>
<wgt id='2636'>0.80957E+02</wgt>
<wgt id='2637'>0.81067E+02</wgt>
<wgt id='2638'>0.81113E+02</wgt>
<wgt id='2639'>0.81077E+02</wgt>
<wgt id='2640'>0.81022E+02</wgt>
<wgt id='2641'>0.81097E+02</wgt>
<wgt id='2642'>0.81078E+02</wgt>
<wgt id='2643'>0.81079E+02</wgt>
<wgt id='2644'>0.81107E+02</wgt>
<wgt id='2645'>0.81050E+02</wgt>
<wgt id='2646'>0.81064E+02</wgt>
<wgt id='2647'>0.81061E+02</wgt>
<wgt id='2648'>0.81078E+02</wgt>
<wgt id='2649'>0.81113E+02</wgt>
<wgt id='2650'>0.81083E+02</wgt>
<wgt id='2651'>0.80458E+02</wgt>
<wgt id='2652'>0.81744E+02</wgt>
<wgt id='2700'>0.79561E+02</wgt>
<wgt id='2701'>0.80458E+02</wgt>
<wgt id='2702'>0.80797E+02</wgt>
<wgt id='2703'>0.81448E+02</wgt>
<wgt id='2704'>0.81744E+02</wgt>
<wgt id='2705'>0.82806E+02</wgt>
<wgt id='2800'>0.85721E+02</wgt>
<wgt id='4000'>0.80254E+02</wgt>
<wgt id='4001'>0.80313E+02</wgt>
<wgt id='4002'>0.80618E+02</wgt>
<wgt id='4003'>0.81327E+02</wgt>
<wgt id='4004'>0.79011E+02</wgt>
<wgt id='4005'>0.79593E+02</wgt>
<wgt id='4006'>0.80414E+02</wgt>
<wgt id='4007'>0.77620E+02</wgt>
<wgt id='4008'>0.82657E+02</wgt>
<wgt id='4009'>0.78993E+02</wgt>
<wgt id='4010'>0.81324E+02</wgt>
<wgt id='4011'>0.80769E+02</wgt>
<wgt id='4012'>0.80061E+02</wgt>
<wgt id='4013'>0.79605E+02</wgt>
<wgt id='4014'>0.80574E+02</wgt>
<wgt id='4015'>0.80157E+02</wgt>
<wgt id='4016'>0.79821E+02</wgt>
<wgt id='4017'>0.80451E+02</wgt>
<wgt id='4018'>0.79838E+02</wgt>
<wgt id='4019'>0.80483E+02</wgt>
<wgt id='4020'>0.79190E+02</wgt>
<wgt id='4021'>0.80204E+02</wgt>
<wgt id='4022'>0.80342E+02</wgt>
<wgt id='4023'>0.80261E+02</wgt>
<wgt id='4024'>0.79735E+02</wgt>
<wgt id='4025'>0.80204E+02</wgt>
<wgt id='4026'>0.80461E+02</wgt>
<wgt id='4027'>0.79805E+02</wgt>
<wgt id='4028'>0.80433E+02</wgt>
<wgt id='4029'>0.80613E+02</wgt>
<wgt id='4030'>0.79404E+02</wgt>
<wgt id='4031'>0.79985E+02</wgt>
<wgt id='4032'>0.80219E+02</wgt>
<wgt id='4033'>0.79578E+02</wgt>
<wgt id='4034'>0.80592E+02</wgt>
<wgt id='4035'>0.80627E+02</wgt>
<wgt id='4036'>0.79962E+02</wgt>
<wgt id='4037'>0.80725E+02</wgt>
<wgt id='4038'>0.79292E+02</wgt>
<wgt id='4039'>0.80941E+02</wgt>
<wgt id='4040'>0.79217E+02</wgt>
<wgt id='4041'>0.81028E+02</wgt>
<wgt id='4042'>0.79293E+02</wgt>
<wgt id='4043'>0.79376E+02</wgt>
<wgt id='4044'>0.80903E+02</wgt>
<wgt id='4045'>0.80179E+02</wgt>
<wgt id='4046'>0.80302E+02</wgt>
<wgt id='4047'>0.81136E+02</wgt>
<wgt id='4048'>0.79191E+02</wgt>
<wgt id='4049'>0.79190E+02</wgt>
<wgt id='4050'>0.81227E+02</wgt>
<wgt id='4051'>0.81435E+02</wgt>
<wgt id='4052'>0.78551E+02</wgt>
<wgt id='4053'>0.80815E+02</wgt>
<wgt id='4054'>0.79661E+02</wgt>
<wgt id='4055'>0.80560E+02</wgt>
<wgt id='4056'>0.79852E+02</wgt>
<wgt id='4057'>0.80073E+02</wgt>
<wgt id='4058'>0.80425E+02</wgt>
<wgt id='4100'>0.80545E+02</wgt>
<wgt id='4101'>0.80398E+02</wgt>
<wgt id='4102'>0.80125E+02</wgt>
<wgt id='4103'>0.80014E+02</wgt>
<wgt id='4200'>0.79567E+02</wgt>
<wgt id='4201'>0.79900E+02</wgt>
<wgt id='4202'>0.79444E+02</wgt>
<wgt id='4203'>0.80481E+02</wgt>
<wgt id='4204'>0.78808E+02</wgt>
<wgt id='4205'>0.80398E+02</wgt>
<wgt id='4206'>0.78503E+02</wgt>
<wgt id='4207'>0.78838E+02</wgt>
<wgt id='4208'>0.79374E+02</wgt>
<wgt id='4209'>0.79254E+02</wgt>
<wgt id='4210'>0.79406E+02</wgt>
<wgt id='4211'>0.79416E+02</wgt>
<wgt id='4212'>0.79580E+02</wgt>
<wgt id='4213'>0.80674E+02</wgt>
<wgt id='4214'>0.77742E+02</wgt>
<wgt id='4215'>0.79469E+02</wgt>
<wgt id='4216'>0.79982E+02</wgt>
<wgt id='4217'>0.80359E+02</wgt>
<wgt id='4218'>0.79094E+02</wgt>
<wgt id='4219'>0.79464E+02</wgt>
<wgt id='4220'>0.79780E+02</wgt>
<wgt id='4221'>0.79516E+02</wgt>
<wgt id='4222'>0.79842E+02</wgt>
<wgt id='4223'>0.79064E+02</wgt>
<wgt id='4224'>0.80246E+02</wgt>
<wgt id='4225'>0.79530E+02</wgt>
<wgt id='4226'>0.79230E+02</wgt>
<wgt id='4227'>0.79241E+02</wgt>
<wgt id='4228'>0.79801E+02</wgt>
<wgt id='4229'>0.79822E+02</wgt>
<wgt id='4230'>0.79008E+02</wgt>
<wgt id='4231'>0.80971E+02</wgt>
<wgt id='4232'>0.77398E+02</wgt>
<wgt id='4233'>0.80105E+02</wgt>
<wgt id='4234'>0.79068E+02</wgt>
<wgt id='4235'>0.78844E+02</wgt>
<wgt id='4236'>0.79752E+02</wgt>
<wgt id='4237'>0.80736E+02</wgt>
<wgt id='4238'>0.78620E+02</wgt>
<wgt id='4239'>0.79809E+02</wgt>
<wgt id='4240'>0.79164E+02</wgt>
<wgt id='4241'>0.80099E+02</wgt>
<wgt id='4242'>0.78948E+02</wgt>
<wgt id='4243'>0.78856E+02</wgt>
<wgt id='4244'>0.80536E+02</wgt>
<wgt id='4245'>0.78105E+02</wgt>
<wgt id='4246'>0.81062E+02</wgt>
<wgt id='4247'>0.80178E+02</wgt>
<wgt id='4248'>0.78996E+02</wgt>
<wgt id='4249'>0.79804E+02</wgt>
<wgt id='4250'>0.79139E+02</wgt>
<wgt id='4251'>0.78958E+02</wgt>
<wgt id='4252'>0.79917E+02</wgt>
<wgt id='4253'>0.79563E+02</wgt>
<wgt id='4254'>0.79557E+02</wgt>
<wgt id='4255'>0.79748E+02</wgt>
<wgt id='4256'>0.78849E+02</wgt>
<wgt id='4257'>0.79057E+02</wgt>
<wgt id='4258'>0.79726E+02</wgt>
<wgt id='4300'>0.78012E+02</wgt>
<wgt id='4301'>0.80284E+02</wgt>
<wgt id='5000'>0.77804E+02</wgt>
<wgt id='5001'>0.77792E+02</wgt>
<wgt id='5002'>0.77818E+02</wgt>
<wgt id='5003'>0.77423E+02</wgt>
<wgt id='5004'>0.78151E+02</wgt>
<wgt id='5005'>0.77608E+02</wgt>
<wgt id='5006'>0.78125E+02</wgt>
<wgt id='5007'>0.78021E+02</wgt>
<wgt id='5008'>0.77627E+02</wgt>
<wgt id='5009'>0.77834E+02</wgt>
<wgt id='5010'>0.77773E+02</wgt>
<wgt id='5011'>0.77727E+02</wgt>
<wgt id='5012'>0.77878E+02</wgt>
<wgt id='5013'>0.78093E+02</wgt>
<wgt id='5014'>0.77598E+02</wgt>
<wgt id='5015'>0.78158E+02</wgt>
<wgt id='5016'>0.78158E+02</wgt>
<wgt id='5017'>0.77626E+02</wgt>
<wgt id='5018'>0.77924E+02</wgt>
<wgt id='5019'>0.77190E+02</wgt>
<wgt id='5020'>0.78655E+02</wgt>
<wgt id='5021'>0.77704E+02</wgt>
<wgt id='5022'>0.77950E+02</wgt>
<wgt id='5023'>0.77813E+02</wgt>
<wgt id='5024'>0.77783E+02</wgt>
<wgt id='5025'>0.77935E+02</wgt>
<wgt id='5026'>0.77656E+02</wgt>
<wgt id='5027'>0.77718E+02</wgt>
<wgt id='5028'>0.78037E+02</wgt>
<wgt id='5029'>0.76950E+02</wgt>
<wgt id='5030'>0.78289E+02</wgt>
<wgt id='5031'>0.77941E+02</wgt>
<wgt id='5032'>0.77370E+02</wgt>
<wgt id='5033'>0.77797E+02</wgt>
<wgt id='5034'>0.77810E+02</wgt>
<wgt id='5035'>0.78094E+02</wgt>
<wgt id='5036'>0.77417E+02</wgt>
<wgt id='5037'>0.78204E+02</wgt>
<wgt id='5038'>0.77580E+02</wgt>
<wgt id='5039'>0.77673E+02</wgt>
<wgt id='5040'>0.78144E+02</wgt>
<wgt id='5041'>0.77983E+02</wgt>
<wgt id='5042'>0.77628E+02</wgt>
<wgt id='5043'>0.76849E+02</wgt>
<wgt id='5044'>0.78659E+02</wgt>
<wgt id='5045'>0.77550E+02</wgt>
<wgt id='5046'>0.78279E+02</wgt>
<wgt id='5047'>0.77813E+02</wgt>
<wgt id='5048'>0.77852E+02</wgt>
<wgt id='5049'>0.78063E+02</wgt>
<wgt id='5050'>0.77411E+02</wgt>
<wgt id='5051'>0.77928E+02</wgt>
<wgt id='5052'>0.77677E+02</wgt>
<wgt id='5053'>0.77347E+02</wgt>
<wgt id='5054'>0.78029E+02</wgt>
<wgt id='5055'>0.77579E+02</wgt>
<wgt id='5056'>0.77780E+02</wgt>
<wgt id='5057'>0.77623E+02</wgt>
<wgt id='5058'>0.77894E+02</wgt>
<wgt id='5059'>0.78018E+02</wgt>
<wgt id='5060'>0.77693E+02</wgt>
<wgt id='5061'>0.77675E+02</wgt>
<wgt id='5062'>0.77552E+02</wgt>
<wgt id='5063'>0.78241E+02</wgt>
<wgt id='5064'>0.78021E+02</wgt>
<wgt id='5100'>0.77804E+02</wgt>
<wgt id='5101'>0.77857E+02</wgt>
<wgt id='6000'>0.78893E+02</wgt>
<wgt id='6001'>0.78981E+02</wgt>
<wgt id='6002'>0.77291E+02</wgt>
<wgt id='6003'>0.78732E+02</wgt>
<wgt id='6004'>0.78655E+02</wgt>
<wgt id='6005'>0.79062E+02</wgt>
<wgt id='6006'>0.78330E+02</wgt>
<wgt id='6007'>0.79027E+02</wgt>
<wgt id='6008'>0.78317E+02</wgt>
<wgt id='6009'>0.79201E+02</wgt>
<wgt id='6010'>0.78860E+02</wgt>
<wgt id='6011'>0.79024E+02</wgt>
<wgt id='6012'>0.79062E+02</wgt>
<wgt id='6013'>0.79186E+02</wgt>
<wgt id='6014'>0.79030E+02</wgt>
<wgt id='6015'>0.79053E+02</wgt>
<wgt id='6016'>0.79224E+02</wgt>
<wgt id='6017'>0.79234E+02</wgt>
<wgt id='6018'>0.79334E+02</wgt>
<wgt id='6019'>0.78967E+02</wgt>
<wgt id='6020'>0.79019E+02</wgt>
<wgt id='6021'>0.78610E+02</wgt>
<wgt id='6022'>0.78768E+02</wgt>
<wgt id='6023'>0.78964E+02</wgt>
<wgt id='6024'>0.78932E+02</wgt>
<wgt id='6025'>0.77911E+02</wgt>
<wgt id='6026'>0.78994E+02</wgt>
<wgt id='6027'>0.78910E+02</wgt>
<wgt id='6028'>0.78875E+02</wgt>
<wgt id='6029'>0.79040E+02</wgt>
<wgt id='6030'>0.79122E+02</wgt>
<wgt id='6031'>0.78844E+02</wgt>
<wgt id='6032'>0.78948E+02</wgt>
<wgt id='6033'>0.78953E+02</wgt>
<wgt id='6034'>0.78932E+02</wgt>
<wgt id='6035'>0.78969E+02</wgt>
<wgt id='6036'>0.78948E+02</wgt>
<wgt id='6037'>0.78993E+02</wgt>
<wgt id='6038'>0.78898E+02</wgt>
<wgt id='6039'>0.79053E+02</wgt>
<wgt id='6040'>0.78741E+02</wgt>
<wgt id='6041'>0.77836E+02</wgt>
<wgt id='6042'>0.80525E+02</wgt>
<wgt id='7000'>0.88345E+02</wgt>
<wgt id='7001'>0.88506E+02</wgt>
<wgt id='7002'>0.88281E+02</wgt>
<wgt id='7003'>0.88252E+02</wgt>
<wgt id='7004'>0.88534E+02</wgt>
<wgt id='7005'>0.88171E+02</wgt>
<wgt id='7006'>0.88614E+02</wgt>
<wgt id='7007'>0.88016E+02</wgt>
<wgt id='7008'>0.88760E+02</wgt>
<wgt id='7009'>0.88921E+02</wgt>
<wgt id='7010'>0.87864E+02</wgt>
<wgt id='7011'>0.88715E+02</wgt>
<wgt id='7012'>0.88071E+02</wgt>
<wgt id='7013'>0.88167E+02</wgt>
<wgt id='7014'>0.88616E+02</wgt>
<wgt id='7015'>0.88216E+02</wgt>
<wgt id='7016'>0.88533E+02</wgt>
<wgt id='7017'>0.88623E+02</wgt>
<wgt id='7018'>0.88157E+02</wgt>
<wgt id='7019'>0.88287E+02</wgt>
<wgt id='7020'>0.88501E+02</wgt>
<wgt id='7021'>0.87776E+02</wgt>
<wgt id='7022'>0.89003E+02</wgt>
<wgt id='7023'>0.88292E+02</wgt>
<wgt id='7024'>0.88387E+02</wgt>
<wgt id='7025'>0.88088E+02</wgt>
<wgt id='7026'>0.88456E+02</wgt>
<wgt id='7027'>0.87802E+02</wgt>
<wgt id='7028'>0.88751E+02</wgt>
<wgt id='8000'>0.81989E+02</wgt>
<wgt id='8001'>0.81976E+02</wgt>
<wgt id='8002'>0.81895E+02</wgt>
<wgt id='8003'>0.82133E+02</wgt>
<wgt id='8004'>0.81990E+02</wgt>
<wgt id='8005'>0.82047E+02</wgt>
<wgt id='8006'>0.81871E+02</wgt>
<wgt id='8007'>0.82135E+02</wgt>
<wgt id='8008'>0.81525E+02</wgt>
<wgt id='8009'>0.81822E+02</wgt>
<wgt id='8010'>0.82019E+02</wgt>
<wgt id='8011'>0.81794E+02</wgt>
<wgt id='8012'>0.82140E+02</wgt>
<wgt id='8013'>0.82047E+02</wgt>
<wgt id='8014'>0.81847E+02</wgt>
<wgt id='8015'>0.82039E+02</wgt>
<wgt id='8016'>0.81926E+02</wgt>
<wgt id='8017'>0.81822E+02</wgt>
<wgt id='8018'>0.81728E+02</wgt>
<wgt id='8019'>0.82004E+02</wgt>
<wgt id='8020'>0.81627E+02</wgt>
<wgt id='8021'>0.81774E+02</wgt>
<wgt id='8022'>0.81973E+02</wgt>
<wgt id='8023'>0.81965E+02</wgt>
<wgt id='8024'>0.82165E+02</wgt>
<wgt id='8025'>0.82023E+02</wgt>
<wgt id='8026'>0.81693E+02</wgt>
<wgt id='8027'>0.81781E+02</wgt>
<wgt id='8028'>0.82189E+02</wgt>
<wgt id='8029'>0.81511E+02</wgt>
<wgt id='3000'>0.81104E+02</wgt>
<wgt id='3001'>0.86268E+02</wgt>
<wgt id='3002'>0.81859E+02</wgt>
<wgt id='3003'>0.79733E+02</wgt>
<wgt id='3004'>0.79616E+02</wgt>
<wgt id='3005'>0.79234E+02</wgt>
<wgt id='3006'>0.84267E+02</wgt>
<wgt id='3007'>0.82801E+02</wgt>
<wgt id='3008'>0.80700E+02</wgt>
<wgt id='3009'>0.79148E+02</wgt>
<wgt id='3010'>0.74850E+02</wgt>
<wgt id='3011'>0.81038E+02</wgt>
<wgt id='3012'>0.79413E+02</wgt>
<wgt id='3013'>0.79303E+02</wgt>
<wgt id='3014'>0.83614E+02</wgt>
<wgt id='3015'>0.82448E+02</wgt>
<wgt id='3016'>0.80574E+02</wgt>
<wgt id='3017'>0.80821E+02</wgt>
<wgt id='3018'>0.79883E+02</wgt>
<wgt id='3019'>0.82038E+02</wgt>
<wgt id='3020'>0.77674E+02</wgt>
<wgt id='3021'>0.81403E+02</wgt>
<wgt id='3022'>0.83713E+02</wgt>
<wgt id='3023'>0.83051E+02</wgt>
<wgt id='3024'>0.78844E+02</wgt>
<wgt id='3025'>0.81981E+02</wgt>
<wgt id='3026'>0.85294E+02</wgt>
<wgt id='3027'>0.79048E+02</wgt>
<wgt id='3028'>0.81837E+02</wgt>
<wgt id='3029'>0.80950E+02</wgt>
<wgt id='3030'>0.80948E+02</wgt>
<wgt id='3031'>0.83534E+02</wgt>
<wgt id='3032'>0.80549E+02</wgt>
<wgt id='3033'>0.83934E+02</wgt>
<wgt id='3034'>0.77732E+02</wgt>
<wgt id='3035'>0.81150E+02</wgt>
<wgt id='3036'>0.82953E+02</wgt>
<wgt id='3037'>0.80386E+02</wgt>
<wgt id='3038'>0.80738E+02</wgt>
<wgt id='3039'>0.80851E+02</wgt>
<wgt id='3040'>0.84050E+02</wgt>
<wgt id='3041'>0.82036E+02</wgt>
<wgt id='3042'>0.82176E+02</wgt>
<wgt id='3043'>0.80691E+02</wgt>
<wgt id='3044'>0.82691E+02</wgt>
<wgt id='3045'>0.83225E+02</wgt>
<wgt id='3046'>0.82446E+02</wgt>
<wgt id='3047'>0.81936E+02</wgt>
<wgt id='3048'>0.81492E+02</wgt>
<wgt id='3049'>0.82603E+02</wgt>
<wgt id='3050'>0.78809E+02</wgt>
<wgt id='3051'>0.80226E+02</wgt>
<wgt id='3052'>0.81469E+02</wgt>
<wgt id='3053'>0.81575E+02</wgt>
<wgt id='3054'>0.82157E+02</wgt>
<wgt id='3055'>0.83764E+02</wgt>
<wgt id='3056'>0.79664E+02</wgt>
<wgt id='3057'>0.81864E+02</wgt>
<wgt id='3058'>0.81686E+02</wgt>
<wgt id='3059'>0.82617E+02</wgt>
<wgt id='3060'>0.84604E+02</wgt>
<wgt id='3061'>0.80114E+02</wgt>
<wgt id='3062'>0.79923E+02</wgt>
<wgt id='3063'>0.80445E+02</wgt>
<wgt id='3064'>0.80541E+02</wgt>
<wgt id='3065'>0.83484E+02</wgt>
<wgt id='3066'>0.84597E+02</wgt>
<wgt id='3067'>0.82196E+02</wgt>
<wgt id='3068'>0.81657E+02</wgt>
<wgt id='3069'>0.82073E+02</wgt>
<wgt id='3070'>0.79630E+02</wgt>
<wgt id='3071'>0.80416E+02</wgt>
<wgt id='3072'>0.77984E+02</wgt>
<wgt id='3073'>0.78538E+02</wgt>
<wgt id='3074'>0.78138E+02</wgt>
<wgt id='3075'>0.79102E+02</wgt>
<wgt id='3076'>0.84638E+02</wgt>
<wgt id='3077'>0.77686E+02</wgt>
<wgt id='3078'>0.83134E+02</wgt>
<wgt id='3079'>0.81413E+02</wgt>
<wgt id='3080'>0.80368E+02</wgt>
<wgt id='3081'>0.80929E+02</wgt>
<wgt id='3082'>0.80574E+02</wgt>
<wgt id='3083'>0.80460E+02</wgt>
<wgt id='3084'>0.79954E+02</wgt>
<wgt id='3085'>0.81764E+02</wgt>
<wgt id='3086'>0.80628E+02</wgt>
<wgt id='3087'>0.77949E+02</wgt>
<wgt id='3088'>0.80144E+02</wgt>
<wgt id='3089'>0.75784E+02</wgt>
<wgt id='3090'>0.81379E+02</wgt>
<wgt id='3091'>0.81816E+02</wgt>
<wgt id='3092'>0.79111E+02</wgt>
<wgt id='3093'>0.79253E+02</wgt>
<wgt id='3094'>0.79377E+02</wgt>
<wgt id='3095'>0.79761E+02</wgt>
<wgt id='3096'>0.84610E+02</wgt>
<wgt id='3097'>0.81597E+02</wgt>
<wgt id='3098'>0.80587E+02</wgt>
<wgt id='3099'>0.81464E+02</wgt>
<wgt id='3100'>0.81365E+02</wgt>
<wgt id='3200'>0.81124E+02</wgt>
<wgt id='3201'>0.81376E+02</wgt>
<wgt id='3202'>0.80546E+02</wgt>
<wgt id='3203'>0.83114E+02</wgt>
<wgt id='3204'>0.79734E+02</wgt>
<wgt id='3205'>0.80898E+02</wgt>
<wgt id='3206'>0.82442E+02</wgt>
<wgt id='3207'>0.80344E+02</wgt>
<wgt id='3208'>0.82420E+02</wgt>
<wgt id='3209'>0.80930E+02</wgt>
<wgt id='3210'>0.80124E+02</wgt>
<wgt id='3211'>0.81320E+02</wgt>
<wgt id='3212'>0.83461E+02</wgt>
<wgt id='3213'>0.78976E+02</wgt>
<wgt id='3214'>0.79998E+02</wgt>
<wgt id='3215'>0.80113E+02</wgt>
<wgt id='3216'>0.79131E+02</wgt>
<wgt id='3217'>0.82142E+02</wgt>
<wgt id='3218'>0.80293E+02</wgt>
<wgt id='3219'>0.81636E+02</wgt>
<wgt id='3220'>0.81653E+02</wgt>
<wgt id='3221'>0.81073E+02</wgt>
<wgt id='3222'>0.80110E+02</wgt>
<wgt id='3223'>0.81982E+02</wgt>
<wgt id='3224'>0.80044E+02</wgt>
<wgt id='3225'>0.82277E+02</wgt>
<wgt id='3226'>0.82014E+02</wgt>
<wgt id='3227'>0.79662E+02</wgt>
<wgt id='3228'>0.80397E+02</wgt>
<wgt id='3229'>0.82111E+02</wgt>
<wgt id='3230'>0.80783E+02</wgt>
<wgt id='3231'>0.80581E+02</wgt>
<wgt id='3232'>0.79968E+02</wgt>
<wgt id='3233'>0.82104E+02</wgt>
<wgt id='3234'>0.79810E+02</wgt>
<wgt id='3235'>0.80285E+02</wgt>
<wgt id='3236'>0.79648E+02</wgt>
<wgt id='3237'>0.82132E+02</wgt>
<wgt id='3238'>0.80672E+02</wgt>
<wgt id='3239'>0.81365E+02</wgt>
<wgt id='3240'>0.83014E+02</wgt>
<wgt id='3241'>0.82350E+02</wgt>
<wgt id='3242'>0.79228E+02</wgt>
<wgt id='3243'>0.80937E+02</wgt>
<wgt id='3244'>0.79993E+02</wgt>
<wgt id='3245'>0.79611E+02</wgt>
<wgt id='3246'>0.81520E+02</wgt>
<wgt id='3247'>0.81167E+02</wgt>
<wgt id='3248'>0.83392E+02</wgt>
<wgt id='3249'>0.79584E+02</wgt>
<wgt id='3250'>0.82185E+02</wgt>
<wgt id='3251'>0.79874E+02</wgt>
<wgt id='3252'>0.81118E+02</wgt>
<wgt id='3253'>0.80985E+02</wgt>
<wgt id='3254'>0.82707E+02</wgt>
<wgt id='3255'>0.80642E+02</wgt>
<wgt id='3256'>0.79828E+02</wgt>
<wgt id='3257'>0.81679E+02</wgt>
<wgt id='3258'>0.80401E+02</wgt>
<wgt id='3259'>0.78750E+02</wgt>
<wgt id='3260'>0.80043E+02</wgt>
<wgt id='3261'>0.78816E+02</wgt>
<wgt id='3262'>0.84140E+02</wgt>
<wgt id='3263'>0.82350E+02</wgt>
<wgt id='3264'>0.80461E+02</wgt>
<wgt id='3265'>0.78412E+02</wgt>
<wgt id='3266'>0.82132E+02</wgt>
<wgt id='3267'>0.81601E+02</wgt>
<wgt id='3268'>0.81017E+02</wgt>
<wgt id='3269'>0.80282E+02</wgt>
<wgt id='3270'>0.82078E+02</wgt>
<wgt id='3271'>0.80559E+02</wgt>
<wgt id='3272'>0.81688E+02</wgt>
<wgt id='3273'>0.80737E+02</wgt>
<wgt id='3274'>0.80652E+02</wgt>
<wgt id='3275'>0.81039E+02</wgt>
<wgt id='3276'>0.81053E+02</wgt>
<wgt id='3277'>0.82629E+02</wgt>
<wgt id='3278'>0.82086E+02</wgt>
<wgt id='3279'>0.79750E+02</wgt>
<wgt id='3280'>0.79960E+02</wgt>
<wgt id='3281'>0.81721E+02</wgt>
<wgt id='3282'>0.82164E+02</wgt>
<wgt id='3283'>0.82668E+02</wgt>
<wgt id='3284'>0.80881E+02</wgt>
<wgt id='3285'>0.80163E+02</wgt>
<wgt id='3286'>0.84111E+02</wgt>
<wgt id='3287'>0.84632E+02</wgt>
<wgt id='3288'>0.81354E+02</wgt>
<wgt id='3289'>0.81480E+02</wgt>
<wgt id='3290'>0.81212E+02</wgt>
<wgt id='3291'>0.80481E+02</wgt>
<wgt id='3292'>0.82812E+02</wgt>
<wgt id='3293'>0.81413E+02</wgt>
<wgt id='3294'>0.81086E+02</wgt>
<wgt id='3295'>0.81979E+02</wgt>
<wgt id='3296'>0.83519E+02</wgt>
<wgt id='3297'>0.80456E+02</wgt>
<wgt id='3298'>0.80819E+02</wgt>
<wgt id='3299'>0.80625E+02</wgt>
<wgt id='3300'>0.80661E+02</wgt>
<wgt id='3301'>0.80458E+02</wgt>
<wgt id='3302'>0.81744E+02</wgt>
<wgt id='3400'>0.81482E+02</wgt>
<wgt id='3401'>0.81438E+02</wgt>
<wgt id='3402'>0.81767E+02</wgt>
<wgt id='3403'>0.82005E+02</wgt>
<wgt id='3404'>0.79637E+02</wgt>
<wgt id='3405'>0.80620E+02</wgt>
<wgt id='3406'>0.84322E+02</wgt>
<wgt id='3407'>0.82707E+02</wgt>
<wgt id='3408'>0.79931E+02</wgt>
<wgt id='3409'>0.82506E+02</wgt>
<wgt id='3410'>0.80985E+02</wgt>
<wgt id='3411'>0.81941E+02</wgt>
<wgt id='3412'>0.81352E+02</wgt>
<wgt id='3413'>0.82320E+02</wgt>
<wgt id='3414'>0.81984E+02</wgt>
<wgt id='3415'>0.80972E+02</wgt>
<wgt id='3416'>0.82955E+02</wgt>
<wgt id='3417'>0.82437E+02</wgt>
<wgt id='3418'>0.82060E+02</wgt>
<wgt id='3419'>0.81920E+02</wgt>
<wgt id='3420'>0.80798E+02</wgt>
<wgt id='3421'>0.82537E+02</wgt>
<wgt id='3422'>0.81752E+02</wgt>
<wgt id='3423'>0.81190E+02</wgt>
<wgt id='3424'>0.81048E+02</wgt>
<wgt id='3425'>0.81748E+02</wgt>
<wgt id='3426'>0.82305E+02</wgt>
<wgt id='3427'>0.81565E+02</wgt>
<wgt id='3428'>0.82768E+02</wgt>
<wgt id='3429'>0.80352E+02</wgt>
<wgt id='3430'>0.82216E+02</wgt>
<wgt id='3431'>0.80532E+02</wgt>
<wgt id='3432'>0.80397E+02</wgt>
<wgt id='3433'>0.81687E+02</wgt>
<wgt id='3434'>0.80763E+02</wgt>
<wgt id='3435'>0.80873E+02</wgt>
<wgt id='3436'>0.83513E+02</wgt>
<wgt id='3437'>0.80493E+02</wgt>
<wgt id='3438'>0.80776E+02</wgt>
<wgt id='3439'>0.80388E+02</wgt>
<wgt id='3440'>0.80363E+02</wgt>
<wgt id='3441'>0.81346E+02</wgt>
<wgt id='3442'>0.80586E+02</wgt>
<wgt id='3443'>0.80072E+02</wgt>
<wgt id='3444'>0.81794E+02</wgt>
<wgt id='3445'>0.81312E+02</wgt>
<wgt id='3446'>0.80405E+02</wgt>
<wgt id='3447'>0.83192E+02</wgt>
<wgt id='3448'>0.83749E+02</wgt>
<wgt id='3449'>0.81569E+02</wgt>
<wgt id='3450'>0.81598E+02</wgt>
<wgt id='3451'>0.81383E+02</wgt>
<wgt id='3452'>0.81385E+02</wgt>
<wgt id='3453'>0.82189E+02</wgt>
<wgt id='3454'>0.81278E+02</wgt>
<wgt id='3455'>0.81342E+02</wgt>
<wgt id='3456'>0.80369E+02</wgt>
<wgt id='3457'>0.81259E+02</wgt>
<wgt id='3458'>0.80204E+02</wgt>
<wgt id='3459'>0.81821E+02</wgt>
<wgt id='3460'>0.82082E+02</wgt>
<wgt id='3461'>0.81095E+02</wgt>
<wgt id='3462'>0.80502E+02</wgt>
<wgt id='3463'>0.81269E+02</wgt>
<wgt id='3464'>0.80160E+02</wgt>
<wgt id='3465'>0.80757E+02</wgt>
<wgt id='3466'>0.80930E+02</wgt>
<wgt id='3467'>0.81427E+02</wgt>
<wgt id='3468'>0.81539E+02</wgt>
<wgt id='3469'>0.81991E+02</wgt>
<wgt id='3470'>0.81013E+02</wgt>
<wgt id='3471'>0.80626E+02</wgt>
<wgt id='3472'>0.81617E+02</wgt>
<wgt id='3473'>0.80536E+02</wgt>
<wgt id='3474'>0.81260E+02</wgt>
<wgt id='3475'>0.81570E+02</wgt>
<wgt id='3476'>0.82150E+02</wgt>
<wgt id='3477'>0.82034E+02</wgt>
<wgt id='3478'>0.80898E+02</wgt>
<wgt id='3479'>0.82716E+02</wgt>
<wgt id='3480'>0.81725E+02</wgt>
<wgt id='3481'>0.82538E+02</wgt>
<wgt id='3482'>0.80288E+02</wgt>
<wgt id='3483'>0.82413E+02</wgt>
<wgt id='3484'>0.81434E+02</wgt>
<wgt id='3485'>0.81592E+02</wgt>
<wgt id='3486'>0.81663E+02</wgt>
<wgt id='3487'>0.81785E+02</wgt>
<wgt id='3488'>0.80738E+02</wgt>
<wgt id='3489'>0.81320E+02</wgt>
<wgt id='3490'>0.78723E+02</wgt>
<wgt id='3491'>0.83158E+02</wgt>
<wgt id='3492'>0.82259E+02</wgt>
<wgt id='3493'>0.80057E+02</wgt>
<wgt id='3494'>0.79915E+02</wgt>
<wgt id='3495'>0.82026E+02</wgt>
<wgt id='3496'>0.81392E+02</wgt>
<wgt id='3497'>0.82076E+02</wgt>
<wgt id='3498'>0.82036E+02</wgt>
<wgt id='3499'>0.83464E+02</wgt>
<wgt id='3500'>0.82649E+02</wgt>
</rwgt>
</event>
<event>
     13 322200  8.11039E+01  7.21405E+01 -1.00000E+00  1.28795E-01
      21    -1     0     0   504   505  0.000000000E+00  0.000000000E+00  5.382646988E+02  5.382646988E+02  0.000000000E+00  0.00000E+00  9.000E+00
      21    -1     0     0   503   504  0.000000000E+00  0.000000000E+00 -3.403368310E+02  3.403368310E+02  0.000000000E+00  0.00000E+00  9.000E+00
       6     2     1     2   502     0  7.387508928E+01 -2.887590506E+02 -6.006211504E+01  3.494503273E+02  1.722462059E+02  0.00000E+00  9.000E+00
      -6     2     1     2     0   505 -7.539145150E+01  2.166344842E+02  3.210769618E+02  4.333168696E+02  1.790494998E+02  0.00000E+00  9.000E+00
      21     1     1     2   503   502  1.516362222E+00  7.212456646E+01 -6.308697899E+01  9.583433288E+01  6.743495762E-07  0.00000E+00  9.000E+00
      24     2     3     3     0     0  8.697673987E+01 -2.255646967E+02 -1.000773868E+02  2.733451029E+02  7.910547533E+01  0.00000E+00  9.000E+00
       5     1     3     3   502     0 -1.310165059E+01 -6.319435392E+01  4.001527176E+01  7.610522445E+01  5.060000000E+00  0.00000E+00 -1.000E+00
     -24     2     4     4     0     0 -5.566799245E+01  5.118334716E+01  1.903561020E+02  2.214757962E+02  8.424620078E+01  0.00000E+00  9.000E+00
      -5     1     4     4     0   505 -1.972345904E+01  1.654511370E+02  1.307208598E+02  2.118410734E+02  5.060000000E+00  0.00000E+00  1.000E+00
     -11     1     6     6     0     0  2.044700576E+01 -1.320909162E+02 -8.302914339E+01  1.573528800E+02  5.100000000E-04  0.00000E+00  1.000E+00
      12     1     6     6     0     0  6.652973411E+01 -9.347378050E+01 -1.704824341E+01  1.159922229E+02  0.000000000E+00  0.00000E+00 -1.000E+00
      15     1     8     8     0     0 -3.796408676E+01 -1.772392869E+01  7.572726707E+01  8.656319217E+01  1.777000000E+00  0.00000E+00 -1.000E+00
     -16     1     8     8     0     0 -1.770390569E+01  6.890727585E+01  1.146288349E+02  1.349126040E+02  0.000000000E+00  0.00000E+00  1.000E+00
#rwgt            1           1   595.43721460429492               10        3201           0
<rwgt>
<wgt id='1001'>0.81104E+02</wgt>
<wgt id='1002'>0.76489E+02</wgt>
<wgt id='1003'>0.86301E+02</wgt>
<wgt id='1004'>0.69942E+02</wgt>
<wgt id='1005'>0.65783E+02</wgt>
<wgt id='1006'>0.74631E+02</wgt>
<wgt id='1007'>0.95196E+02</wgt>
<wgt id='1008'>0.90081E+02</wgt>
<wgt id='1009'>0.10095E+03</wgt>
<wgt id='2000'>0.81104E+02</wgt>
<wgt id='2001'>0.81090E+02</wgt>
<wgt id='2002'>0.80928E+02</wgt>
<wgt id='2003'>0.81129E+02</wgt>
<wgt id='2004'>0.81241E+02</wgt>
<wgt id='2005'>0.81070E+02</wgt>
<wgt id='2006'>0.81252E+02</wgt>
<wgt id='2007'>0.81060E+02</wgt>
<wgt id='2008'>0.81240E+02</wgt>
<wgt id='2009'>0.81025E+02</wgt>
<wgt id='2010'>0.81073E+02</wgt>
<wgt id='2011'>0.81096E+02</wgt>
<wgt id='2012'>0.81120E+02</wgt>
<wgt id='2013'>0.81307E+02</wgt>
<wgt id='2014'>0.81409E+02</wgt>
<wgt id='2015'>0.81308E+02</wgt>
<wgt id='2016'>0.81237E+02</wgt>
<wgt id='2017'>0.81322E+02</wgt>
<wgt id='2018'>0.80821E+02</wgt>
<wgt id='2019'>0.81032E+02</wgt>
<wgt id='2020'>0.81061E+02</wgt>
<wgt id='2021'>0.80861E+02</wgt>
<wgt id='2022'>0.81066E+02</wgt>
<wgt id='2023'>0.81154E+02</wgt>
<wgt id='2024'>0.80984E+02</wgt>
<wgt id='2025'>0.81054E+02</wgt>
<wgt id='2026'>0.80975E+02</wgt>
<wgt id='2027'>0.80805E+02</wgt>
<wgt id='2028'>0.81188E+02</wgt>
<wgt id='2029'>0.80711E+02</wgt>
<wgt id='2030'>0.81125E+02</wgt>
<wgt id='2031'>0.80794E+02</wgt>
<wgt id='2032'>0.81172E+02</wgt>
<wgt id='2033'>0.80984E+02</wgt>
<wgt id='2034'>0.80931E+02</wgt>
<wgt id='2035'>0.81107E+02</wgt>
<wgt id='2036'>0.81289E+02</wgt>
<wgt id='2037'>0.81079E+02</wgt>
<wgt id='2038'>0.81031E+02</wgt>
<wgt id='2039'>0.81093E+02</wgt>
<wgt id='2040'>0.81059E+02</wgt>
<wgt id='2041'>0.81072E+02</wgt>
<wgt id='2042'>0.81190E+02</wgt>
<wgt id='2043'>0.81039E+02</wgt>
<wgt id='2044'>0.81184E+02</wgt>
<wgt id='2045'>0.81078E+02</wgt>
<wgt id='2046'>0.81103E+02</wgt>
<wgt id='2047'>0.81097E+02</wgt>
<wgt id='2048'>0.81070E+02</wgt>
<wgt id='2049'>0.81031E+02</wgt>
<wgt id='2050'>0.81073E+02</wgt>
<wgt id='2051'>0.81095E+02</wgt>
<wgt id='2052'>0.81178E+02</wgt>
<wgt id='2053'>0.81092E+02</wgt>
<wgt id='2054'>0.81096E+02</wgt>
<wgt id='2055'>0.81120E+02</wgt>
<wgt id='2056'>0.81044E+02</wgt>
<wgt id='2057'>0.81132E+02</wgt>
<wgt id='2058'>0.81124E+02</wgt>
<wgt id='2059'>0.81095E+02</wgt>
<wgt id='2060'>0.81104E+02</wgt>
<wgt id='2061'>0.81078E+02</wgt>
<wgt id='2062'>0.81171E+02</wgt>
<wgt id='2063'>0.81128E+02</wgt>
<wgt id='2064'>0.81116E+02</wgt>
<wgt id='2065'>0.81184E+02</wgt>
<wgt id='2066'>0.81090E+02</wgt>
<wgt id='2067'>0.81121E+02</wgt>
<wgt id='2068'>0.81131E+02</wgt>
<wgt id='2069'>0.81097E+02</wgt>
<wgt id='2070'>0.81115E+02</wgt>
<wgt id='2071'>0.81100E+02</wgt>
<wgt id='2072'>0.81103E+02</wgt>
<wgt id='2073'>0.81125E+02</wgt>
<wgt id='2074'>0.81076E+02</wgt>
<wgt id='2075'>0.81088E+02</wgt>
<wgt id='2076'>0.81083E+02</wgt>
<wgt id='2077'>0.81151E+02</wgt>
<wgt id='2078'>0.81115E+02</wgt>
<wgt id='2079'>0.81085E+02</wgt>
<wgt id='2080'>0.81115E+02</wgt>
<wgt id='2081'>0.81095E+02</wgt>
<wgt id='2082'>0.81112E+02</wgt>
<wgt id='2083'>0.81140E+02</wgt>
<wgt id='2084'>0.81103E+02</wgt>
<wgt id='2085'>0.81105E+02</wgt>
<wgt id='2086'>0.81094E+02</wgt>
<wgt id='2087'>0.81112E+02</wgt>
<wgt id='2088'>0.81096E+02</wgt>
<wgt id='2089'>0.81089E+02</wgt>
<wgt id='2090'>0.81122E+02</wgt>
<wgt id='2091'>0.81104E+02</wgt>
<wgt id='2092'>0.81128E+02</wgt>
<wgt id='2093'>0.81087E+02</wgt>
<wgt id='2094'>0.81112E+02</wgt>
<wgt id='2095'>0.81121E+02</wgt>
<wgt id='2096'>0.81091E+02</wgt>
<wgt id='2097'>0.81117E+02</wgt>
<wgt id='2098'>0.81098E+02</wgt>
<wgt id='2099'>0.81115E+02</wgt>
<wgt id='2100'>0.81104E+02</wgt>
<wgt id='2101'>0.78941E+02</wgt>
<wgt id='2102'>0.83529E+02</wgt>
<wgt id='2200'>0.81231E+02</wgt>
<wgt id='2201'>0.70696E+02</wgt>
<wgt id='2202'>0.72818E+02</wgt>
<wgt id='2203'>0.75013E+02</wgt>
<wgt id='2204'>0.76915E+02</wgt>
<wgt id='2205'>0.80167E+02</wgt>
<wgt id='2206'>0.82385E+02</wgt>
<wgt id='2207'>0.85396E+02</wgt>
<wgt id='2208'>0.87587E+02</wgt>
<wgt id='2300'>0.84826E+02</wgt>
<wgt id='2301'>0.84858E+02</wgt>
<wgt id='2302'>0.84822E+02</wgt>
<wgt id='2303'>0.84767E+02</wgt>
<wgt id='2304'>0.85031E+02</wgt>
<wgt id='2305'>0.84836E+02</wgt>
<wgt id='2306'>0.84745E+02</wgt>
<wgt id='2307'>0.84939E+02</wgt>
<wgt id='2308'>0.84842E+02</wgt>
<wgt id='2309'>0.85038E+02</wgt>
<wgt id='2310'>0.84770E+02</wgt>
<wgt id='2311'>0.84638E+02</wgt>
<wgt id='2312'>0.84767E+02</wgt>
<wgt id='2313'>0.85066E+02</wgt>
<wgt id='2314'>0.84796E+02</wgt>
<wgt id='2315'>0.84628E+02</wgt>
<wgt id='2316'>0.84844E+02</wgt>
<wgt id='2317'>0.84752E+02</wgt>
<wgt id='2318'>0.84946E+02</wgt>
<wgt id='2319'>0.84900E+02</wgt>
<wgt id='2320'>0.84781E+02</wgt>
<wgt id='2321'>0.84812E+02</wgt>
<wgt id='2322'>0.84825E+02</wgt>
<wgt id='2323'>0.84752E+02</wgt>
<wgt id='2324'>0.84655E+02</wgt>
<wgt id='2325'>0.84915E+02</wgt>
<wgt id='2326'>0.84877E+02</wgt>
<wgt id='2327'>0.84856E+02</wgt>
<wgt id='2328'>0.84545E+02</wgt>
<wgt id='2329'>0.84541E+02</wgt>
<wgt id='2330'>0.85308E+02</wgt>
<wgt id='2331'>0.85070E+02</wgt>
<wgt id='2332'>0.84905E+02</wgt>
<wgt id='2333'>0.85041E+02</wgt>
<wgt id='2334'>0.84858E+02</wgt>
<wgt id='2335'>0.85169E+02</wgt>
<wgt id='2336'>0.84928E+02</wgt>
<wgt id='2337'>0.84795E+02</wgt>
<wgt id='2338'>0.84848E+02</wgt>
<wgt id='2339'>0.84852E+02</wgt>
<wgt id='2340'>0.84749E+02</wgt>
<wgt id='2341'>0.84882E+02</wgt>
<wgt id='2342'>0.84695E+02</wgt>
<wgt id='2343'>0.84663E+02</wgt>
<wgt id='2344'>0.84889E+02</wgt>
<wgt id='2345'>0.84921E+02</wgt>
<wgt id='2346'>0.84953E+02</wgt>
<wgt id='2347'>0.84819E+02</wgt>
<wgt id='2348'>0.84860E+02</wgt>
<wgt id='2349'>0.84791E+02</wgt>
<wgt id='2350'>0.84750E+02</wgt>
<wgt id='2351'>0.84979E+02</wgt>
<wgt id='2352'>0.84766E+02</wgt>
<wgt id='2353'>0.84811E+02</wgt>
<wgt id='2354'>0.84842E+02</wgt>
<wgt id='2355'>0.84755E+02</wgt>
<wgt id='2356'>0.84846E+02</wgt>
<wgt id='2357'>0.84814E+02</wgt>
<wgt id='2358'>0.84758E+02</wgt>
<wgt id='2359'>0.84843E+02</wgt>
<wgt id='2360'>0.84868E+02</wgt>
<wgt id='2361'>0.84878E+02</wgt>
<wgt id='2362'>0.84849E+02</wgt>
<wgt id='2363'>0.84852E+02</wgt>
<wgt id='2364'>0.84803E+02</wgt>
<wgt id='2365'>0.84821E+02</wgt>
<wgt id='2366'>0.84854E+02</wgt>
<wgt id='2367'>0.84757E+02</wgt>
<wgt id='2368'>0.84848E+02</wgt>
<wgt id='2369'>0.84781E+02</wgt>
<wgt id='2370'>0.84807E+02</wgt>
<wgt id='2371'>0.84811E+02</wgt>
<wgt id='2372'>0.84845E+02</wgt>
<wgt id='2373'>0.84807E+02</wgt>
<wgt id='2374'>0.84861E+02</wgt>
<wgt id='2375'>0.84840E+02</wgt>
<wgt id='2376'>0.84826E+02</wgt>
<wgt id='2377'>0.84827E+02</wgt>
<wgt id='2378'>0.84858E+02</wgt>
<wgt id='2379'>0.84806E+02</wgt>
<wgt id='2380'>0.84809E+02</wgt>
<wgt id='2381'>0.84822E+02</wgt>
<wgt id='2382'>0.84813E+02</wgt>
<wgt id='2383'>0.84818E+02</wgt>
<wgt id='2384'>0.84804E+02</wgt>
<wgt id='2385'>0.84843E+02</wgt>
<wgt id='2386'>0.84813E+02</wgt>
<wgt id='2387'>0.84808E+02</wgt>
<wgt id='2388'>0.84811E+02</wgt>
<wgt id='2389'>0.84826E+02</wgt>
<wgt id='2390'>0.84832E+02</wgt>
<wgt id='2391'>0.84826E+02</wgt>
<wgt id='2392'>0.84816E+02</wgt>
<wgt id='2393'>0.84831E+02</wgt>
<wgt id='2394'>0.84846E+02</wgt>
<wgt id='2395'>0.84829E+02</wgt>
<wgt id='2396'>0.84815E+02</wgt>
<wgt id='2397'>0.84807E+02</wgt>
<wgt id='2398'>0.84815E+02</wgt>
<wgt id='2399'>0.84841E+02</wgt>
<wgt id='2400'>0.84834E+02</wgt>
<wgt id='2401'>0.82482E+02</wgt>
<wgt id='2402'>0.87009E+02</wgt>
<wgt id='2500'>0.82300E+02</wgt>
<wgt id='2501'>0.87711E+02</wgt>
<wgt id='2600'>0.78095E+02</wgt>
<wgt id='2601'>0.78109E+02</wgt>
<wgt id='2602'>0.77970E+02</wgt>
<wgt id='2603'>0.78061E+02</wgt>
<wgt id='2604'>0.78039E+02</wgt>
<wgt id='2605'>0.77981E+02</wgt>
<wgt id='2606'>0.78014E+02</wgt>
<wgt id='2607'>0.78122E+02</wgt>
<wgt id='2608'>0.78084E+02</wgt>
<wgt id='2609'>0.77979E+02</wgt>
<wgt id='2610'>0.78041E+02</wgt>
<wgt id='2611'>0.78010E+02</wgt>
<wgt id='2612'>0.78370E+02</wgt>
<wgt id='2613'>0.78049E+02</wgt>
<wgt id='2614'>0.78048E+02</wgt>
<wgt id='2615'>0.77877E+02</wgt>
<wgt id='2616'>0.78061E+02</wgt>
<wgt id='2617'>0.77882E+02</wgt>
<wgt id='2618'>0.77849E+02</wgt>
<wgt id='2619'>0.78166E+02</wgt>
<wgt id='2620'>0.78091E+02</wgt>
<wgt id='2621'>0.78085E+02</wgt>
<wgt id='2622'>0.78289E+02</wgt>
<wgt id='2623'>0.78088E+02</wgt>
<wgt id='2624'>0.78105E+02</wgt>
<wgt id='2625'>0.78006E+02</wgt>
<wgt id='2626'>0.78074E+02</wgt>
<wgt id='2627'>0.78057E+02</wgt>
<wgt id='2628'>0.78119E+02</wgt>
<wgt id='2629'>0.78099E+02</wgt>
<wgt id='2630'>0.78100E+02</wgt>
<wgt id='2631'>0.78055E+02</wgt>
<wgt id='2632'>0.78104E+02</wgt>
<wgt id='2633'>0.78079E+02</wgt>
<wgt id='2634'>0.78081E+02</wgt>
<wgt id='2635'>0.78085E+02</wgt>
<wgt id='2636'>0.78079E+02</wgt>
<wgt id='2637'>0.78095E+02</wgt>
<wgt id='2638'>0.78114E+02</wgt>
<wgt id='2639'>0.78093E+02</wgt>
<wgt id='2640'>0.78095E+02</wgt>
<wgt id='2641'>0.78106E+02</wgt>
<wgt id='2642'>0.78102E+02</wgt>
<wgt id='2643'>0.78101E+02</wgt>
<wgt id='2644'>0.78089E+02</wgt>
<wgt id='2645'>0.78093E+02</wgt>
<wgt id='2646'>0.78090E+02</wgt>
<wgt id='2647'>0.78099E+02</wgt>
<wgt id='2648'>0.78095E+02</wgt>
<wgt id='2649'>0.78100E+02</wgt>
<wgt id='2650'>0.78095E+02</wgt>
<wgt id='2651'>0.76724E+02</wgt>
<wgt id='2652'>0.79356E+02</wgt>
<wgt id='2700'>0.75401E+02</wgt>
<wgt id='2701'>0.76724E+02</wgt>
<wgt id='2702'>0.77468E+02</wgt>
<wgt id='2703'>0.78640E+02</wgt>
<wgt id='2704'>0.79356E+02</wgt>
<wgt id='2705'>0.80559E+02</wgt>
<wgt id='2800'>0.79334E+02</wgt>
<wgt id='4000'>0.80723E+02</wgt>
<wgt id='4001'>0.81126E+02</wgt>
<wgt id='4002'>0.80711E+02</wgt>
<wgt id='4003'>0.80869E+02</wgt>
<wgt id='4004'>0.80683E+02</wgt>
<wgt id='4005'>0.80547E+02</wgt>
<wgt id='4006'>0.81007E+02</wgt>
<wgt id='4007'>0.81652E+02</wgt>
<wgt id='4008'>0.79847E+02</wgt>
<wgt id='4009'>0.81160E+02</wgt>
<wgt id='4010'>0.80263E+02</wgt>
<wgt id='4011'>0.81059E+02</wgt>
<wgt id='4012'>0.80405E+02</wgt>
<wgt id='4013'>0.81436E+02</wgt>
<wgt id='4014'>0.80152E+02</wgt>
<wgt id='4015'>0.80261E+02</wgt>
<wgt id='4016'>0.81506E+02</wgt>
<wgt id='4017'>0.80661E+02</wgt>
<wgt id='4018'>0.80840E+02</wgt>
<wgt id='4019'>0.81270E+02</wgt>
<wgt id='4020'>0.79978E+02</wgt>
<wgt id='4021'>0.80881E+02</wgt>
<wgt id='4022'>0.80437E+02</wgt>
<wgt id='4023'>0.80955E+02</wgt>
<wgt id='4024'>0.80758E+02</wgt>
<wgt id='4025'>0.80923E+02</wgt>
<wgt id='4026'>0.80312E+02</wgt>
<wgt id='4027'>0.80850E+02</wgt>
<wgt id='4028'>0.80743E+02</wgt>
<wgt id='4029'>0.80475E+02</wgt>
<wgt id='4030'>0.80296E+02</wgt>
<wgt id='4031'>0.80342E+02</wgt>
<wgt id='4032'>0.81556E+02</wgt>
<wgt id='4033'>0.81103E+02</wgt>
<wgt id='4034'>0.80070E+02</wgt>
<wgt id='4035'>0.82125E+02</wgt>
<wgt id='4036'>0.79720E+02</wgt>
<wgt id='4037'>0.82490E+02</wgt>
<wgt id='4038'>0.79432E+02</wgt>
<wgt id='4039'>0.82346E+02</wgt>
<wgt id='4040'>0.79135E+02</wgt>
<wgt id='4041'>0.80737E+02</wgt>
<wgt id='4042'>0.80578E+02</wgt>
<wgt id='4043'>0.79773E+02</wgt>
<wgt id='4044'>0.80706E+02</wgt>
<wgt id='4045'>0.82015E+02</wgt>
<wgt id='4046'>0.80165E+02</wgt>
<wgt id='4047'>0.79948E+02</wgt>
<wgt id='4048'>0.81214E+02</wgt>
<wgt id='4049'>0.80782E+02</wgt>
<wgt id='4050'>0.80736E+02</wgt>
<wgt id='4051'>0.81612E+02</wgt>
<wgt id='4052'>0.80002E+02</wgt>
<wgt id='4053'>0.81315E+02</wgt>
<wgt id='4054'>0.79631E+02</wgt>
<wgt id='4055'>0.81247E+02</wgt>
<wgt id='4056'>0.80267E+02</wgt>
<wgt id='4057'>0.79872E+02</wgt>
<wgt id='4058'>0.81256E+02</wgt>
<wgt id='4100'>0.81055E+02</wgt>
<wgt id='4101'>0.80898E+02</wgt>
<wgt id='4102'>0.80527E+02</wgt>
<wgt id='4103'>0.80310E+02</wgt>
<wgt id='4200'>0.77339E+02</wgt>
<wgt id='4201'>0.77452E+02</wgt>
<wgt id='4202'>0.77556E+02</wgt>
<wgt id='4203'>0.76597E+02</wgt>
<wgt id='4204'>0.77887E+02</wgt>
<wgt id='4205'>0.77220E+02</wgt>
<wgt id='4206'>0.77698E+02</wgt>
<wgt id='4207'>0.77397E+02</wgt>
<wgt id='4208'>0.77410E+02</wgt>
<wgt id='4209'>0.77576E+02</wgt>
<wgt id='4210'>0.77341E+02</wgt>
<wgt id='4211'>0.78418E+02</wgt>
<wgt id='4212'>0.76512E+02</wgt>
<wgt id='4213'>0.77588E+02</wgt>
<wgt id='4214'>0.76971E+02</wgt>
<wgt id='4215'>0.77389E+02</wgt>
<wgt id='4216'>0.77143E+02</wgt>
<wgt id='4217'>0.76980E+02</wgt>
<wgt id='4218'>0.77591E+02</wgt>
<wgt id='4219'>0.76182E+02</wgt>
<wgt id='4220'>0.78486E+02</wgt>
<wgt id='4221'>0.76712E+02</wgt>
<wgt id='4222'>0.78174E+02</wgt>
<wgt id='4223'>0.77523E+02</wgt>
<wgt id='4224'>0.76587E+02</wgt>
<wgt id='4225'>0.76018E+02</wgt>
<wgt id='4226'>0.78764E+02</wgt>
<wgt id='4227'>0.78179E+02</wgt>
<wgt id='4228'>0.76651E+02</wgt>
<wgt id='4229'>0.76204E+02</wgt>
<wgt id='4230'>0.78188E+02</wgt>
<wgt id='4231'>0.77540E+02</wgt>
<wgt id='4232'>0.76987E+02</wgt>
<wgt id='4233'>0.77649E+02</wgt>
<wgt id='4234'>0.76671E+02</wgt>
<wgt id='4235'>0.77881E+02</wgt>
<wgt id='4236'>0.76921E+02</wgt>
<wgt id='4237'>0.77675E+02</wgt>
<wgt id='4238'>0.76597E+02</wgt>
<wgt id='4239'>0.77571E+02</wgt>
<wgt id='4240'>0.76255E+02</wgt>
<wgt id='4241'>0.77144E+02</wgt>
<wgt id='4242'>0.77538E+02</wgt>
<wgt id='4243'>0.77279E+02</wgt>
<wgt id='4244'>0.77777E+02</wgt>
<wgt id='4245'>0.76728E+02</wgt>
<wgt id='4246'>0.77799E+02</wgt>
<wgt id='4247'>0.76990E+02</wgt>
<wgt id='4248'>0.77454E+02</wgt>
<wgt id='4249'>0.78718E+02</wgt>
<wgt id='4250'>0.75793E+02</wgt>
<wgt id='4251'>0.77217E+02</wgt>
<wgt id='4252'>0.77352E+02</wgt>
<wgt id='4253'>0.77240E+02</wgt>
<wgt id='4254'>0.77274E+02</wgt>
<wgt id='4255'>0.78007E+02</wgt>
<wgt id='4256'>0.76947E+02</wgt>
<wgt id='4257'>0.75894E+02</wgt>
<wgt id='4258'>0.77747E+02</wgt>
<wgt id='4300'>0.79937E+02</wgt>
<wgt id='4301'>0.78989E+02</wgt>
<wgt id='5000'>0.80164E+02</wgt>
<wgt id='5001'>0.80216E+02</wgt>
<wgt id='5002'>0.80098E+02</wgt>
<wgt id='5003'>0.80182E+02</wgt>
<wgt id='5004'>0.80148E+02</wgt>
<wgt id='5005'>0.80186E+02</wgt>
<wgt id='5006'>0.80129E+02</wgt>
<wgt id='5007'>0.80238E+02</wgt>
<wgt id='5008'>0.80104E+02</wgt>
<wgt id='5009'>0.80295E+02</wgt>
<wgt id='5010'>0.80029E+02</wgt>
<wgt id='5011'>0.80371E+02</wgt>
<wgt id='5012'>0.79965E+02</wgt>
<wgt id='5013'>0.80315E+02</wgt>
<wgt id='5014'>0.80057E+02</wgt>
<wgt id='5015'>0.79748E+02</wgt>
<wgt id='5016'>0.79748E+02</wgt>
<wgt id='5017'>0.80572E+02</wgt>
<wgt id='5018'>0.79889E+02</wgt>
<wgt id='5019'>0.80437E+02</wgt>
<wgt id='5020'>0.79790E+02</wgt>
<wgt id='5021'>0.80241E+02</wgt>
<wgt id='5022'>0.80047E+02</wgt>
<wgt id='5023'>0.80104E+02</wgt>
<wgt id='5024'>0.80309E+02</wgt>
<wgt id='5025'>0.79945E+02</wgt>
<wgt id='5026'>0.80408E+02</wgt>
<wgt id='5027'>0.80218E+02</wgt>
<wgt id='5028'>0.80021E+02</wgt>
<wgt id='5029'>0.81078E+02</wgt>
<wgt id='5030'>0.79650E+02</wgt>
<wgt id='5031'>0.79667E+02</wgt>
<wgt id='5032'>0.81690E+02</wgt>
<wgt id='5033'>0.80129E+02</wgt>
<wgt id='5034'>0.80202E+02</wgt>
<wgt id='5035'>0.80175E+02</wgt>
<wgt id='5036'>0.80151E+02</wgt>
<wgt id='5037'>0.79959E+02</wgt>
<wgt id='5038'>0.80280E+02</wgt>
<wgt id='5039'>0.80367E+02</wgt>
<wgt id='5040'>0.79658E+02</wgt>
<wgt id='5041'>0.80173E+02</wgt>
<wgt id='5042'>0.80151E+02</wgt>
<wgt id='5043'>0.80358E+02</wgt>
<wgt id='5044'>0.80024E+02</wgt>
<wgt id='5045'>0.79998E+02</wgt>
<wgt id='5046'>0.80608E+02</wgt>
<wgt id='5047'>0.80224E+02</wgt>
<wgt id='5048'>0.79900E+02</wgt>
<wgt id='5049'>0.80128E+02</wgt>
<wgt id='5050'>0.80268E+02</wgt>
<wgt id='5051'>0.80316E+02</wgt>
<wgt id='5052'>0.80054E+02</wgt>
<wgt id='5053'>0.80195E+02</wgt>
<wgt id='5054'>0.80341E+02</wgt>
<wgt id='5055'>0.80190E+02</wgt>
<wgt id='5056'>0.80208E+02</wgt>
<wgt id='5057'>0.79871E+02</wgt>
<wgt id='5058'>0.80370E+02</wgt>
<wgt id='5059'>0.80118E+02</wgt>
<wgt id='5060'>0.80198E+02</wgt>
<wgt id='5061'>0.80507E+02</wgt>
<wgt id='5062'>0.80236E+02</wgt>
<wgt id='5063'>0.80521E+02</wgt>
<wgt id='5064'>0.80107E+02</wgt>
<wgt id='5100'>0.80164E+02</wgt>
<wgt id='5101'>0.80163E+02</wgt>
<wgt id='6000'>0.80219E+02</wgt>
<wgt id='6001'>0.80252E+02</wgt>
<wgt id='6002'>0.80063E+02</wgt>
<wgt id='6003'>0.80106E+02</wgt>
<wgt id='6004'>0.80327E+02</wgt>
<wgt id='6005'>0.79951E+02</wgt>
<wgt id='6006'>0.80468E+02</wgt>
<wgt id='6007'>0.79975E+02</wgt>
<wgt id='6008'>0.80180E+02</wgt>
<wgt id='6009'>0.80423E+02</wgt>
<wgt id='6010'>0.79036E+02</wgt>
<wgt id='6011'>0.80200E+02</wgt>
<wgt id='6012'>0.80490E+02</wgt>
<wgt id='6013'>0.79959E+02</wgt>
<wgt id='6014'>0.80059E+02</wgt>
<wgt id='6015'>0.79594E+02</wgt>
<wgt id='6016'>0.80391E+02</wgt>
<wgt id='6017'>0.80126E+02</wgt>
<wgt id='6018'>0.79932E+02</wgt>
<wgt id='6019'>0.80280E+02</wgt>
<wgt id='6020'>0.80375E+02</wgt>
<wgt id='6021'>0.80249E+02</wgt>
<wgt id='6022'>0.80319E+02</wgt>
<wgt id='6023'>0.80234E+02</wgt>
<wgt id='6024'>0.80308E+02</wgt>
<wgt id='6025'>0.80520E+02</wgt>
<wgt id='6026'>0.80216E+02</wgt>
<wgt id='6027'>0.80226E+02</wgt>
<wgt id='6028'>0.80015E+02</wgt>
<wgt id='6029'>0.80029E+02</wgt>
<wgt id='6030'>0.80501E+02</wgt>
<wgt id='6031'>0.80015E+02</wgt>
<wgt id='6032'>0.80249E+02</wgt>
<wgt id='6033'>0.80093E+02</wgt>
<wgt id='6034'>0.80492E+02</wgt>
<wgt id='6035'>0.80273E+02</wgt>
<wgt id='6036'>0.80757E+02</wgt>
<wgt id='6037'>0.80223E+02</wgt>
<wgt id='6038'>0.80262E+02</wgt>
<wgt id='6039'>0.80398E+02</wgt>
<wgt id='6040'>0.80189E+02</wgt>
<wgt id='6041'>0.78146E+02</wgt>
<wgt id='6042'>0.80204E+02</wgt>
<wgt id='7000'>0.79602E+02</wgt>
<wgt id='7001'>0.78246E+02</wgt>
<wgt id='7002'>0.78426E+02</wgt>
<wgt id='7003'>0.78291E+02</wgt>
<wgt id='7004'>0.78382E+02</wgt>
<wgt id='7005'>0.78411E+02</wgt>
<wgt id='7006'>0.78262E+02</wgt>
<wgt id='7007'>0.78849E+02</wgt>
<wgt id='7008'>0.77838E+02</wgt>
<wgt id='7009'>0.77934E+02</wgt>
<wgt id='7010'>0.78752E+02</wgt>
<wgt id='7011'>0.78609E+02</wgt>
<wgt id='7012'>0.78067E+02</wgt>
<wgt id='7013'>0.78248E+02</wgt>
<wgt id='7014'>0.78416E+02</wgt>
<wgt id='7015'>0.78298E+02</wgt>
<wgt id='7016'>0.78135E+02</wgt>
<wgt id='7017'>0.78359E+02</wgt>
<wgt id='7018'>0.78322E+02</wgt>
<wgt id='7019'>0.78257E+02</wgt>
<wgt id='7020'>0.78429E+02</wgt>
<wgt id='7021'>0.78744E+02</wgt>
<wgt id='7022'>0.77942E+02</wgt>
<wgt id='7023'>0.77837E+02</wgt>
<wgt id='7024'>0.78852E+02</wgt>
<wgt id='7025'>0.77183E+02</wgt>
<wgt id='7026'>0.79455E+02</wgt>
<wgt id='7027'>0.77839E+02</wgt>
<wgt id='7028'>0.78878E+02</wgt>
<wgt id='8000'>0.79511E+02</wgt>
<wgt id='8001'>0.79505E+02</wgt>
<wgt id='8002'>0.79535E+02</wgt>
<wgt id='8003'>0.79511E+02</wgt>
<wgt id='8004'>0.79509E+02</wgt>
<wgt id='8005'>0.79373E+02</wgt>
<wgt id='8006'>0.79622E+02</wgt>
<wgt id='8007'>0.79724E+02</wgt>
<wgt id='8008'>0.79693E+02</wgt>
<wgt id='8009'>0.79847E+02</wgt>
<wgt id='8010'>0.79406E+02</wgt>
<wgt id='8011'>0.79539E+02</wgt>
<wgt id='8012'>0.79176E+02</wgt>
<wgt id='8013'>0.79324E+02</wgt>
<wgt id='8014'>0.79750E+02</wgt>
<wgt id='8015'>0.79468E+02</wgt>
<wgt id='8016'>0.79601E+02</wgt>
<wgt id='8017'>0.79574E+02</wgt>
<wgt id='8018'>0.79756E+02</wgt>
<wgt id='8019'>0.79533E+02</wgt>
<wgt id='8020'>0.79541E+02</wgt>
<wgt id='8021'>0.79423E+02</wgt>
<wgt id='8022'>0.79557E+02</wgt>
<wgt id='8023'>0.79374E+02</wgt>
<wgt id='8024'>0.79164E+02</wgt>
<wgt id='8025'>0.79379E+02</wgt>
<wgt id='8026'>0.79595E+02</wgt>
<wgt id='8027'>0.79607E+02</wgt>
<wgt id='8028'>0.79563E+02</wgt>
<wgt id='8029'>0.79629E+02</wgt>
<wgt id='3000'>0.81104E+02</wgt>
<wgt id='3001'>0.81833E+02</wgt>
<wgt id='3002'>0.79868E+02</wgt>
<wgt id='3003'>0.80906E+02</wgt>
<wgt id='3004'>0.81997E+02</wgt>
<wgt id='3005'>0.80842E+02</wgt>
<wgt id='3006'>0.83938E+02</wgt>
<wgt id='3007'>0.80777E+02</wgt>
<wgt id='3008'>0.80247E+02</wgt>
<wgt id='3009'>0.81126E+02</wgt>
<wgt id='3010'>0.82843E+02</wgt>
<wgt id='3011'>0.81923E+02</wgt>
<wgt id='3012'>0.82438E+02</wgt>
<wgt id='3013'>0.80205E+02</wgt>
<wgt id='3014'>0.81077E+02</wgt>
<wgt id='3015'>0.79674E+02</wgt>
<wgt id='3016'>0.81402E+02</wgt>
<wgt id='3017'>0.82543E+02</wgt>
<wgt id='3018'>0.81293E+02</wgt>
<wgt id='3019'>0.78826E+02</wgt>
<wgt id='3020'>0.79625E+02</wgt>
<wgt id='3021'>0.79580E+02</wgt>
<wgt id='3022'>0.78463E+02</wgt>
<wgt id='3023'>0.79247E+02</wgt>
<wgt id='3024'>0.80512E+02</wgt>
<wgt id='3025'>0.79879E+02</wgt>
<wgt id='3026'>0.80091E+02</wgt>
<wgt id='3027'>0.79113E+02</wgt>
<wgt id='3028'>0.81678E+02</wgt>
<wgt id='3029'>0.82076E+02</wgt>
<wgt id='3030'>0.82327E+02</wgt>
<wgt id='3031'>0.81826E+02</wgt>
<wgt id='3032'>0.82861E+02</wgt>
<wgt id='3033'>0.80324E+02</wgt>
<wgt id='3034'>0.82394E+02</wgt>
<wgt id='3035'>0.81061E+02</wgt>
<wgt id='3036'>0.81183E+02</wgt>
<wgt id='3037'>0.80389E+02</wgt>
<wgt id='3038'>0.80981E+02</wgt>
<wgt id='3039'>0.81153E+02</wgt>
<wgt id='3040'>0.81267E+02</wgt>
<wgt id='3041'>0.81147E+02</wgt>
<wgt id='3042'>0.82189E+02</wgt>
<wgt id='3043'>0.81481E+02</wgt>
<wgt id='3044'>0.81803E+02</wgt>
<wgt id='3045'>0.81175E+02</wgt>
<wgt id='3046'>0.81724E+02</wgt>
<wgt id='3047'>0.81177E+02</wgt>
<wgt id='3048'>0.80597E+02</wgt>
<wgt id='3049'>0.80564E+02</wgt>
<wgt id='3050'>0.81913E+02</wgt>
<wgt id='3051'>0.81443E+02</wgt>
<wgt id='3052'>0.80041E+02</wgt>
<wgt id='3053'>0.80557E+02</wgt>
<wgt id='3054'>0.81129E+02</wgt>
<wgt id='3055'>0.80316E+02</wgt>
<wgt id='3056'>0.81004E+02</wgt>
<wgt id='3057'>0.80344E+02</wgt>
<wgt id='3058'>0.80116E+02</wgt>
<wgt id='3059'>0.81273E+02</wgt>
<wgt id='3060'>0.81243E+02</wgt>
<wgt id='3061'>0.80910E+02</wgt>
<wgt id='3062'>0.80959E+02</wgt>
<wgt id='3063'>0.79374E+02</wgt>
<wgt id='3064'>0.81390E+02</wgt>
<wgt id='3065'>0.80241E+02</wgt>
<wgt id='3066'>0.81903E+02</wgt>
<wgt id='3067'>0.80119E+02</wgt>
<wgt id='3068'>0.81034E+02</wgt>
<wgt id='3069'>0.81292E+02</wgt>
<wgt id='3070'>0.80901E+02</wgt>
<wgt id='3071'>0.81115E+02</wgt>
<wgt id='3072'>0.79092E+02</wgt>
<wgt id='3073'>0.81649E+02</wgt>
<wgt id='3074'>0.80662E+02</wgt>
<wgt id='3075'>0.82340E+02</wgt>
<wgt id='3076'>0.82251E+02</wgt>
<wgt id='3077'>0.80730E+02</wgt>
<wgt id='3078'>0.80791E+02</wgt>
<wgt id='3079'>0.80568E+02</wgt>
<wgt id='3080'>0.82565E+02</wgt>
<wgt id='3081'>0.80560E+02</wgt>
<wgt id='3082'>0.81402E+02</wgt>
<wgt id='3083'>0.81703E+02</wgt>
<wgt id='3084'>0.80715E+02</wgt>
<wgt id='3085'>0.81397E+02</wgt>
<wgt id='3086'>0.81580E+02</wgt>
<wgt id='3087'>0.81302E+02</wgt>
<wgt id='3088'>0.83255E+02</wgt>
<wgt id='3089'>0.83593E+02</wgt>
<wgt id='3090'>0.82518E+02</wgt>
<wgt id='3091'>0.80882E+02</wgt>
<wgt id='3092'>0.81879E+02</wgt>
<wgt id='3093'>0.81155E+02</wgt>
<wgt id='3094'>0.81496E+02</wgt>
<wgt id='3095'>0.82120E+02</wgt>
<wgt id='3096'>0.80143E+02</wgt>
<wgt id='3097'>0.81689E+02</wgt>
<wgt id='3098'>0.81999E+02</wgt>
<wgt id='3099'>0.79859E+02</wgt>
<wgt id='3100'>0.80220E+02</wgt>
<wgt id='3200'>0.78144E+02</wgt>
<wgt id='3201'>0.78867E+02</wgt>
<wgt id='3202'>0.76848E+02</wgt>
<wgt id='3203'>0.78533E+02</wgt>
<wgt id='3204'>0.77337E+02</wgt>
<wgt id='3205'>0.78871E+02</wgt>
<wgt id='3206'>0.78876E+02</wgt>
<wgt id='3207'>0.79117E+02</wgt>
<wgt id='3208'>0.78705E+02</wgt>
<wgt id='3209'>0.77903E+02</wgt>
<wgt id='3210'>0.78055E+02</wgt>
<wgt id='3211'>0.78387E+02</wgt>
<wgt id='3212'>0.77269E+02</wgt>
<wgt id='3213'>0.78292E+02</wgt>
<wgt id='3214'>0.78083E+02</wgt>
<wgt id='3215'>0.78242E+02</wgt>
<wgt id='3216'>0.79387E+02</wgt>
<wgt id='3217'>0.78486E+02</wgt>
<wgt id='3218'>0.78314E+02</wgt>
<wgt id='3219'>0.77695E+02</wgt>
<wgt id='3220'>0.77938E+02</wgt>
<wgt id='3221'>0.78778E+02</wgt>
<wgt id='3222'>0.79708E+02</wgt>
<wgt id='3223'>0.77864E+02</wgt>
<wgt id='3224'>0.78136E+02</wgt>
<wgt id='3225'>0.78970E+02</wgt>
<wgt id='3226'>0.78455E+02</wgt>
<wgt id='3227'>0.77696E+02</wgt>
<wgt id='3228'>0.77592E+02</wgt>
<wgt id='3229'>0.78576E+02</wgt>
<wgt id='3230'>0.78629E+02</wgt>
<wgt id='3231'>0.78356E+02</wgt>
<wgt id='3232'>0.78470E+02</wgt>
<wgt id='3233'>0.79099E+02</wgt>
<wgt id='3234'>0.77618E+02</wgt>
<wgt id='3235'>0.77596E+02</wgt>
<wgt id='3236'>0.77144E+02</wgt>
<wgt id='3237'>0.77952E+02</wgt>
<wgt id='3238'>0.77774E+02</wgt>
<wgt id='3239'>0.77725E+02</wgt>
<wgt id='3240'>0.77315E+02</wgt>
<wgt id='3241'>0.78910E+02</wgt>
<wgt id='3242'>0.77738E+02</wgt>
<wgt id='3243'>0.77224E+02</wgt>
<wgt id='3244'>0.77915E+02</wgt>
<wgt id='3245'>0.78281E+02</wgt>
<wgt id='3246'>0.77179E+02</wgt>
<wgt id='3247'>0.78480E+02</wgt>
<wgt id='3248'>0.77915E+02</wgt>
<wgt id='3249'>0.77346E+02</wgt>
<wgt id='3250'>0.78347E+02</wgt>
<wgt id='3251'>0.77945E+02</wgt>
<wgt id='3252'>0.78552E+02</wgt>
<wgt id='3253'>0.77744E+02</wgt>
<wgt id='3254'>0.77579E+02</wgt>
<wgt id='3255'>0.77896E+02</wgt>
<wgt id='3256'>0.78120E+02</wgt>
<wgt id='3257'>0.77888E+02</wgt>
<wgt id='3258'>0.78249E+02</wgt>
<wgt id='3259'>0.78363E+02</wgt>
<wgt id='3260'>0.78637E+02</wgt>
<wgt id='3261'>0.78916E+02</wgt>
<wgt id='3262'>0.78059E+02</wgt>
<wgt id='3263'>0.79510E+02</wgt>
<wgt id='3264'>0.78053E+02</wgt>
<wgt id='3265'>0.77840E+02</wgt>
<wgt id='3266'>0.77952E+02</wgt>
<wgt id='3267'>0.77725E+02</wgt>
<wgt id='3268'>0.78329E+02</wgt>
<wgt id='3269'>0.78306E+02</wgt>
<wgt id='3270'>0.78206E+02</wgt>
<wgt id='3271'>0.78276E+02</wgt>
<wgt id='3272'>0.78536E+02</wgt>
<wgt id='3273'>0.77840E+02</wgt>
<wgt id='3274'>0.78103E+02</wgt>
<wgt id='3275'>0.78579E+02</wgt>
<wgt id='3276'>0.77244E+02</wgt>
<wgt id='3277'>0.77416E+02</wgt>
<wgt id='3278'>0.78031E+02</wgt>
<wgt id='3279'>0.78985E+02</wgt>
<wgt id='3280'>0.78032E+02</wgt>
<wgt id='3281'>0.78530E+02</wgt>
<wgt id='3282'>0.78375E+02</wgt>
<wgt id='3283'>0.78572E+02</wgt>
<wgt id='3284'>0.78401E+02</wgt>
<wgt id='3285'>0.77523E+02</wgt>
<wgt id='3286'>0.77510E+02</wgt>
<wgt id='3287'>0.78050E+02</wgt>
<wgt id='3288'>0.78163E+02</wgt>
<wgt id='3289'>0.78918E+02</wgt>
<wgt id='3290'>0.79087E+02</wgt>
<wgt id='3291'>0.76609E+02</wgt>
<wgt id='3292'>0.77463E+02</wgt>
<wgt id='3293'>0.78241E+02</wgt>
<wgt id='3294'>0.76673E+02</wgt>
<wgt id='3295'>0.77784E+02</wgt>
<wgt id='3296'>0.79398E+02</wgt>
<wgt id='3297'>0.77691E+02</wgt>
<wgt id='3298'>0.77811E+02</wgt>
<wgt id='3299'>0.77900E+02</wgt>
<wgt id='3300'>0.78878E+02</wgt>
<wgt id='3301'>0.76724E+02</wgt>
<wgt id='3302'>0.79356E+02</wgt>
<wgt id='3400'>0.78536E+02</wgt>
<wgt id='3401'>0.78669E+02</wgt>
<wgt id='3402'>0.77685E+02</wgt>
<wgt id='3403'>0.79148E+02</wgt>
<wgt id='3404'>0.79540E+02</wgt>
<wgt id='3405'>0.79525E+02</wgt>
<wgt id='3406'>0.78477E+02</wgt>
<wgt id='3407'>0.77797E+02</wgt>
<wgt id='3408'>0.79656E+02</wgt>
<wgt id='3409'>0.79741E+02</wgt>
<wgt id='3410'>0.79314E+02</wgt>
<wgt id='3411'>0.78893E+02</wgt>
<wgt id='3412'>0.78927E+02</wgt>
<wgt id='3413'>0.78391E+02</wgt>
<wgt id='3414'>0.78507E+02</wgt>
<wgt id='3415'>0.78568E+02</wgt>
<wgt id='3416'>0.78316E+02</wgt>
<wgt id='3417'>0.78071E+02</wgt>
<wgt id='3418'>0.77988E+02</wgt>
<wgt id='3419'>0.77806E+02</wgt>
<wgt id='3420'>0.78722E+02</wgt>
<wgt id='3421'>0.79068E+02</wgt>
<wgt id='3422'>0.78463E+02</wgt>
<wgt id='3423'>0.79374E+02</wgt>
<wgt id='3424'>0.78942E+02</wgt>
<wgt id='3425'>0.78815E+02</wgt>
<wgt id='3426'>0.78256E+02</wgt>
<wgt id='3427'>0.78643E+02</wgt>
<wgt id='3428'>0.78868E+02</wgt>
<wgt id='3429'>0.77937E+02</wgt>
<wgt id='3430'>0.78448E+02</wgt>
<wgt id='3431'>0.78185E+02</wgt>
<wgt id='3432'>0.77931E+02</wgt>
<wgt id='3433'>0.77589E+02</wgt>
<wgt id='3434'>0.78984E+02</wgt>
<wgt id='3435'>0.79255E+02</wgt>
<wgt id='3436'>0.78367E+02</wgt>
<wgt id='3437'>0.78132E+02</wgt>
<wgt id='3438'>0.77782E+02</wgt>
<wgt id='3439'>0.78828E+02</wgt>
<wgt id='3440'>0.78802E+02</wgt>
<wgt id='3441'>0.78640E+02</wgt>
<wgt id='3442'>0.77608E+02</wgt>
<wgt id='3443'>0.78522E+02</wgt>
<wgt id='3444'>0.78616E+02</wgt>
<wgt id='3445'>0.78178E+02</wgt>
<wgt id='3446'>0.79545E+02</wgt>
<wgt id='3447'>0.79249E+02</wgt>
<wgt id='3448'>0.79141E+02</wgt>
<wgt id='3449'>0.79624E+02</wgt>
<wgt id='3450'>0.78767E+02</wgt>
<wgt id='3451'>0.78860E+02</wgt>
<wgt id='3452'>0.78167E+02</wgt>
<wgt id='3453'>0.77426E+02</wgt>
<wgt id='3454'>0.77958E+02</wgt>
<wgt id='3455'>0.79384E+02</wgt>
<wgt id='3456'>0.78713E+02</wgt>
<wgt id='3457'>0.80057E+02</wgt>
<wgt id='3458'>0.78851E+02</wgt>
<wgt id='3459'>0.78564E+02</wgt>
<wgt id='3460'>0.78529E+02</wgt>
<wgt id='3461'>0.78039E+02</wgt>
<wgt id='3462'>0.78563E+02</wgt>
<wgt id='3463'>0.77952E+02</wgt>
<wgt id='3464'>0.78738E+02</wgt>
<wgt id='3465'>0.78838E+02</wgt>
<wgt id='3466'>0.79165E+02</wgt>
<wgt id='3467'>0.78111E+02</wgt>
<wgt id='3468'>0.78535E+02</wgt>
<wgt id='3469'>0.78610E+02</wgt>
<wgt id='3470'>0.78175E+02</wgt>
<wgt id='3471'>0.78192E+02</wgt>
<wgt id='3472'>0.77709E+02</wgt>
<wgt id='3473'>0.79050E+02</wgt>
<wgt id='3474'>0.78631E+02</wgt>
<wgt id='3475'>0.78658E+02</wgt>
<wgt id='3476'>0.78170E+02</wgt>
<wgt id='3477'>0.78221E+02</wgt>
<wgt id='3478'>0.79590E+02</wgt>
<wgt id='3479'>0.78514E+02</wgt>
<wgt id='3480'>0.77924E+02</wgt>
<wgt id='3481'>0.78294E+02</wgt>
<wgt id='3482'>0.78944E+02</wgt>
<wgt id='3483'>0.77673E+02</wgt>
<wgt id='3484'>0.78639E+02</wgt>
<wgt id='3485'>0.78026E+02</wgt>
<wgt id='3486'>0.77465E+02</wgt>
<wgt id='3487'>0.79154E+02</wgt>
<wgt id='3488'>0.78609E+02</wgt>
<wgt id='3489'>0.77873E+02</wgt>
<wgt id='3490'>0.79701E+02</wgt>
<wgt id='3491'>0.78115E+02</wgt>
<wgt id='3492'>0.78707E+02</wgt>
<wgt id='3493'>0.77885E+02</wgt>
<wgt id='3494'>0.76262E+02</wgt>
<wgt id='3495'>0.78799E+02</wgt>
<wgt id='3496'>0.77693E+02</wgt>
<wgt id='3497'>0.78214E+02</wgt>
<wgt id='3498'>0.78334E+02</wgt>
<wgt id='3499'>0.78441E+02</wgt>
<wgt id='3500'>0.78658E+02</wgt>
</rwgt>
</event>
<event>
     13 322200  8.11039E+01  1.63405E+01 -1.00000E+00  1.70779E-01
       1    -1     0     0   502     0  0.000000000E+00  0.000000000E+00  1.184370471E+03  1.184370471E+03  0.000000000E+00  0.00000E+00  9.000E+00
      21    -1     0     0   512   513  0.000000000E+00  0.000000000E+00 -5.521476330E+01  5.521476330E+01  0.000000000E+00  0.00000E+00  9.000E+00
       6     2     1     2   502     0 -4.846664922E+01 -1.522330187E+02  3.528146146E+02  4.239192077E+02  1.723526451E+02  0.00000E+00  9.000E+00
      -6     2     1     2     0   513  6.105526220E+01  1.418148732E+02  7.478299135E+02  7.828035496E+02  1.723154504E+02  0.00000E+00  9.000E+00
       1     1     1     2   512     0 -1.258861299E+01  1.041814546E+01  2.851117919E+01  3.286247663E+01  2.100000000E-01  0.00000E+00  9.000E+00
      24     2     3     3     0     0  3.419311796E+01 -1.091016303E+02  2.395902060E+02  2.771597989E+02  7.963511931E+01  0.00000E+00  9.000E+00
       5     1     3     3   502     0 -8.265976718E+01 -4.313138835E+01  1.132244086E+02  1.467594088E+02  5.060000000E+00  0.00000E+00 -1.000E+00
     -24     2     4     4     0     0  3.026335172E+01  7.927120084E+01  6.639752077E+02  6.736382255E+02  7.566761946E+01  0.00000E+00  9.000E+00
      -5     1     4     4     0   513  3.079191048E+01  6.254367239E+01  8.385470575E+01  1.091653241E+02  5.060000000E+00  0.00000E+00  1.000E+00
     -11     1     6     6     0     0 -1.966990099E+01 -1.915518039E+01  9.278525348E+01  9.676223025E+01  5.100000000E-04  0.00000E+00  1.000E+00
      12     1     6     6     0     0  5.386301895E+01 -8.994644995E+01  1.468049525E+02  1.803975686E+02  0.000000000E+00  0.00000E+00 -1.000E+00
      15     1     8     8     0     0  3.431622382E+01  1.488507625E+01  1.163933985E+02  1.222691688E+02  1.777000000E+00  0.00000E+00 -1.000E+00
     -16     1     8     8     0     0 -4.052872093E+00  6.438612459E+01  5.475818092E+02  5.513690566E+02  0.000000000E+00  0.00000E+00  1.000E+00
#rwgt            1           7   31.603706623598097               10        3950           0
<rwgt>
<wgt id='1001'>0.81104E+02</wgt>
<wgt id='1002'>0.75834E+02</wgt>
<wgt id='1003'>0.86197E+02</wgt>
<wgt id='1004'>0.76344E+02</wgt>
<wgt id='1005'>0.72172E+02</wgt>
<wgt id='1006'>0.80319E+02</wgt>
<wgt id='1007'>0.84131E+02</wgt>
<wgt id='1008'>0.77307E+02</wgt>
<wgt id='1009'>0.90825E+02</wgt>
<wgt id='2000'>0.81104E+02</wgt>
<wgt id='2001'>0.81454E+02</wgt>
<wgt id='2002'>0.81029E+02</wgt>
<wgt id='2003'>0.80992E+02</wgt>
<wgt id='2004'>0.81187E+02</wgt>
<wgt id='2005'>0.81242E+02</wgt>
<wgt id='2006'>0.81052E+02</wgt>
<wgt id='2007'>0.80545E+02</wgt>
<wgt id='2008'>0.80607E+02</wgt>
<wgt id='2009'>0.81106E+02</wgt>
<wgt id='2010'>0.80876E+02</wgt>
<wgt id='2011'>0.81019E+02</wgt>
<wgt id='2012'>0.81233E+02</wgt>
<wgt id='2013'>0.81321E+02</wgt>
<wgt id='2014'>0.81177E+02</wgt>
<wgt id='2015'>0.81554E+02</wgt>
<wgt id='2016'>0.80681E+02</wgt>
<wgt id='2017'>0.81336E+02</wgt>
<wgt id='2018'>0.80631E+02</wgt>
<wgt id='2019'>0.81526E+02</wgt>
<wgt id='2020'>0.81605E+02</wgt>
<wgt id='2021'>0.80967E+02</wgt>
<wgt id='2022'>0.81354E+02</wgt>
<wgt id='2023'>0.80545E+02</wgt>
<wgt id='2024'>0.81116E+02</wgt>
<wgt id='2025'>0.80808E+02</wgt>
<wgt id='2026'>0.81282E+02</wgt>
<wgt id='2027'>0.81326E+02</wgt>
<wgt id='2028'>0.81569E+02</wgt>
<wgt id='2029'>0.81616E+02</wgt>
<wgt id='2030'>0.80806E+02</wgt>
<wgt id='2031'>0.82213E+02</wgt>
<wgt id='2032'>0.81234E+02</wgt>
<wgt id='2033'>0.81424E+02</wgt>
<wgt id='2034'>0.81590E+02</wgt>
<wgt id='2035'>0.80929E+02</wgt>
<wgt id='2036'>0.80236E+02</wgt>
<wgt id='2037'>0.81909E+02</wgt>
<wgt id='2038'>0.80815E+02</wgt>
<wgt id='2039'>0.80821E+02</wgt>
<wgt id='2040'>0.81248E+02</wgt>
<wgt id='2041'>0.81182E+02</wgt>
<wgt id='2042'>0.81111E+02</wgt>
<wgt id='2043'>0.81099E+02</wgt>
<wgt id='2044'>0.81016E+02</wgt>
<wgt id='2045'>0.81389E+02</wgt>
<wgt id='2046'>0.80976E+02</wgt>
<wgt id='2047'>0.81298E+02</wgt>
<wgt id='2048'>0.80984E+02</wgt>
<wgt id='2049'>0.80817E+02</wgt>
<wgt id='2050'>0.80689E+02</wgt>
<wgt id='2051'>0.81024E+02</wgt>
<wgt id='2052'>0.80997E+02</wgt>
<wgt id='2053'>0.81193E+02</wgt>
<wgt id='2054'>0.81022E+02</wgt>
<wgt id='2055'>0.81376E+02</wgt>
<wgt id='2056'>0.80800E+02</wgt>
<wgt id='2057'>0.81134E+02</wgt>
<wgt id='2058'>0.81456E+02</wgt>
<wgt id='2059'>0.81173E+02</wgt>
<wgt id='2060'>0.81047E+02</wgt>
<wgt id='2061'>0.81326E+02</wgt>
<wgt id='2062'>0.81368E+02</wgt>
<wgt id='2063'>0.81140E+02</wgt>
<wgt id='2064'>0.81229E+02</wgt>
<wgt id='2065'>0.81094E+02</wgt>
<wgt id='2066'>0.81075E+02</wgt>
<wgt id='2067'>0.81146E+02</wgt>
<wgt id='2068'>0.81199E+02</wgt>
<wgt id='2069'>0.81103E+02</wgt>
<wgt id='2070'>0.81106E+02</wgt>
<wgt id='2071'>0.81235E+02</wgt>
<wgt id='2072'>0.81081E+02</wgt>
<wgt id='2073'>0.81085E+02</wgt>
<wgt id='2074'>0.81155E+02</wgt>
<wgt id='2075'>0.80997E+02</wgt>
<wgt id='2076'>0.81007E+02</wgt>
<wgt id='2077'>0.81210E+02</wgt>
<wgt id='2078'>0.81090E+02</wgt>
<wgt id='2079'>0.80981E+02</wgt>
<wgt id='2080'>0.81097E+02</wgt>
<wgt id='2081'>0.81072E+02</wgt>
<wgt id='2082'>0.81169E+02</wgt>
<wgt id='2083'>0.81115E+02</wgt>
<wgt id='2084'>0.81083E+02</wgt>
<wgt id='2085'>0.81109E+02</wgt>
<wgt id='2086'>0.81086E+02</wgt>
<wgt id='2087'>0.81124E+02</wgt>
<wgt id='2088'>0.81143E+02</wgt>
<wgt id='2089'>0.81121E+02</wgt>
<wgt id='2090'>0.81082E+02</wgt>
<wgt id='2091'>0.81104E+02</wgt>
<wgt id='2092'>0.81137E+02</wgt>
<wgt id='2093'>0.81091E+02</wgt>
<wgt id='2094'>0.81136E+02</wgt>
<wgt id='2095'>0.81111E+02</wgt>
<wgt id='2096'>0.81110E+02</wgt>
<wgt id='2097'>0.81084E+02</wgt>
<wgt id='2098'>0.81047E+02</wgt>
<wgt id='2099'>0.81125E+02</wgt>
<wgt id='2100'>0.81104E+02</wgt>
<wgt id='2101'>0.78548E+02</wgt>
<wgt id='2102'>0.83435E+02</wgt>
<wgt id='2200'>0.80951E+02</wgt>
<wgt id='2201'>0.68594E+02</wgt>
<wgt id='2202'>0.70471E+02</wgt>
<wgt id='2203'>0.73491E+02</wgt>
<wgt id='2204'>0.76348E+02</wgt>
<wgt id='2205'>0.79911E+02</wgt>
<wgt id='2206'>0.82233E+02</wgt>
<wgt id='2207'>0.86321E+02</wgt>
<wgt id='2208'>0.88134E+02</wgt>
<wgt id='2300'>0.81451E+02</wgt>
<wgt id='2301'>0.81529E+02</wgt>
<wgt id='2302'>0.81395E+02</wgt>
<wgt id='2303'>0.81533E+02</wgt>
<wgt id='2304'>0.81620E+02</wgt>
<wgt id='2305'>0.81669E+02</wgt>
<wgt id='2306'>0.81292E+02</wgt>
<wgt id='2307'>0.81931E+02</wgt>
<wgt id='2308'>0.81832E+02</wgt>
<wgt id='2309'>0.81848E+02</wgt>
<wgt id='2310'>0.81149E+02</wgt>
<wgt id='2311'>0.81195E+02</wgt>
<wgt id='2312'>0.81426E+02</wgt>
<wgt id='2313'>0.81855E+02</wgt>
<wgt id='2314'>0.81569E+02</wgt>
<wgt id='2315'>0.81148E+02</wgt>
<wgt id='2316'>0.82240E+02</wgt>
<wgt id='2317'>0.81152E+02</wgt>
<wgt id='2318'>0.81606E+02</wgt>
<wgt id='2319'>0.81271E+02</wgt>
<wgt id='2320'>0.81142E+02</wgt>
<wgt id='2321'>0.81906E+02</wgt>
<wgt id='2322'>0.81387E+02</wgt>
<wgt id='2323'>0.81173E+02</wgt>
<wgt id='2324'>0.81869E+02</wgt>
<wgt id='2325'>0.81187E+02</wgt>
<wgt id='2326'>0.81509E+02</wgt>
<wgt id='2327'>0.81136E+02</wgt>
<wgt id='2328'>0.81867E+02</wgt>
<wgt id='2329'>0.81706E+02</wgt>
<wgt id='2330'>0.79545E+02</wgt>
<wgt id='2331'>0.81494E+02</wgt>
<wgt id='2332'>0.81621E+02</wgt>
<wgt id='2333'>0.81734E+02</wgt>
<wgt id='2334'>0.81298E+02</wgt>
<wgt id='2335'>0.81863E+02</wgt>
<wgt id='2336'>0.81452E+02</wgt>
<wgt id='2337'>0.81294E+02</wgt>
<wgt id='2338'>0.81365E+02</wgt>
<wgt id='2339'>0.81567E+02</wgt>
<wgt id='2340'>0.81371E+02</wgt>
<wgt id='2341'>0.81586E+02</wgt>
<wgt id='2342'>0.81282E+02</wgt>
<wgt id='2343'>0.81615E+02</wgt>
<wgt id='2344'>0.81494E+02</wgt>
<wgt id='2345'>0.81623E+02</wgt>
<wgt id='2346'>0.81466E+02</wgt>
<wgt id='2347'>0.81479E+02</wgt>
<wgt id='2348'>0.81707E+02</wgt>
<wgt id='2349'>0.81034E+02</wgt>
<wgt id='2350'>0.81440E+02</wgt>
<wgt id='2351'>0.81965E+02</wgt>
<wgt id='2352'>0.81419E+02</wgt>
<wgt id='2353'>0.81719E+02</wgt>
<wgt id='2354'>0.81561E+02</wgt>
<wgt id='2355'>0.81250E+02</wgt>
<wgt id='2356'>0.81443E+02</wgt>
<wgt id='2357'>0.81366E+02</wgt>
<wgt id='2358'>0.81499E+02</wgt>
<wgt id='2359'>0.81343E+02</wgt>
<wgt id='2360'>0.81661E+02</wgt>
<wgt id='2361'>0.81543E+02</wgt>
<wgt id='2362'>0.81674E+02</wgt>
<wgt id='2363'>0.81499E+02</wgt>
<wgt id='2364'>0.81655E+02</wgt>
<wgt id='2365'>0.81292E+02</wgt>
<wgt id='2366'>0.81430E+02</wgt>
<wgt id='2367'>0.81460E+02</wgt>
<wgt id='2368'>0.81318E+02</wgt>
<wgt id='2369'>0.81353E+02</wgt>
<wgt id='2370'>0.81585E+02</wgt>
<wgt id='2371'>0.81581E+02</wgt>
<wgt id='2372'>0.81499E+02</wgt>
<wgt id='2373'>0.81511E+02</wgt>
<wgt id='2374'>0.81404E+02</wgt>
<wgt id='2375'>0.81463E+02</wgt>
<wgt id='2376'>0.81329E+02</wgt>
<wgt id='2377'>0.81559E+02</wgt>
<wgt id='2378'>0.81369E+02</wgt>
<wgt id='2379'>0.81465E+02</wgt>
<wgt id='2380'>0.81378E+02</wgt>
<wgt id='2381'>0.81457E+02</wgt>
<wgt id='2382'>0.81550E+02</wgt>
<wgt id='2383'>0.81461E+02</wgt>
<wgt id='2384'>0.81454E+02</wgt>
<wgt id='2385'>0.81520E+02</wgt>
<wgt id='2386'>0.81438E+02</wgt>
<wgt id='2387'>0.81399E+02</wgt>
<wgt id='2388'>0.81561E+02</wgt>
<wgt id='2389'>0.81564E+02</wgt>
<wgt id='2390'>0.81424E+02</wgt>
<wgt id='2391'>0.81416E+02</wgt>
<wgt id='2392'>0.81461E+02</wgt>
<wgt id='2393'>0.81448E+02</wgt>
<wgt id='2394'>0.81472E+02</wgt>
<wgt id='2395'>0.81578E+02</wgt>
<wgt id='2396'>0.81481E+02</wgt>
<wgt id='2397'>0.81529E+02</wgt>
<wgt id='2398'>0.81363E+02</wgt>
<wgt id='2399'>0.81529E+02</wgt>
<wgt id='2400'>0.81375E+02</wgt>
<wgt id='2401'>0.78807E+02</wgt>
<wgt id='2402'>0.84112E+02</wgt>
<wgt id='2500'>0.78382E+02</wgt>
<wgt id='2501'>0.78400E+02</wgt>
<wgt id='2600'>0.79488E+02</wgt>
<wgt id='2601'>0.79370E+02</wgt>
<wgt id='2602'>0.79355E+02</wgt>
<wgt id='2603'>0.79536E+02</wgt>
<wgt id='2604'>0.79337E+02</wgt>
<wgt id='2605'>0.78461E+02</wgt>
<wgt id='2606'>0.80312E+02</wgt>
<wgt id='2607'>0.79888E+02</wgt>
<wgt id='2608'>0.79681E+02</wgt>
<wgt id='2609'>0.79711E+02</wgt>
<wgt id='2610'>0.79895E+02</wgt>
<wgt id='2611'>0.78684E+02</wgt>
<wgt id='2612'>0.79601E+02</wgt>
<wgt id='2613'>0.79113E+02</wgt>
<wgt id='2614'>0.78747E+02</wgt>
<wgt id='2615'>0.79767E+02</wgt>
<wgt id='2616'>0.79643E+02</wgt>
<wgt id='2617'>0.79753E+02</wgt>
<wgt id='2618'>0.79389E+02</wgt>
<wgt id='2619'>0.79034E+02</wgt>
<wgt id='2620'>0.79820E+02</wgt>
<wgt id='2621'>0.79949E+02</wgt>
<wgt id='2622'>0.79516E+02</wgt>
<wgt id='2623'>0.79699E+02</wgt>
<wgt id='2624'>0.79391E+02</wgt>
<wgt id='2625'>0.79440E+02</wgt>
<wgt id='2626'>0.79449E+02</wgt>
<wgt id='2627'>0.79290E+02</wgt>
<wgt id='2628'>0.79576E+02</wgt>
<wgt id='2629'>0.79615E+02</wgt>
<wgt id='2630'>0.79443E+02</wgt>
<wgt id='2631'>0.79611E+02</wgt>
<wgt id='2632'>0.79526E+02</wgt>
<wgt id='2633'>0.79507E+02</wgt>
<wgt id='2634'>0.79419E+02</wgt>
<wgt id='2635'>0.79578E+02</wgt>
<wgt id='2636'>0.79514E+02</wgt>
<wgt id='2637'>0.79581E+02</wgt>
<wgt id='2638'>0.79436E+02</wgt>
<wgt id='2639'>0.79355E+02</wgt>
<wgt id='2640'>0.79584E+02</wgt>
<wgt id='2641'>0.79524E+02</wgt>
<wgt id='2642'>0.79612E+02</wgt>
<wgt id='2643'>0.79344E+02</wgt>
<wgt id='2644'>0.79496E+02</wgt>
<wgt id='2645'>0.79407E+02</wgt>
<wgt id='2646'>0.79478E+02</wgt>
<wgt id='2647'>0.79445E+02</wgt>
<wgt id='2648'>0.79581E+02</wgt>
<wgt id='2649'>0.79604E+02</wgt>
<wgt id='2650'>0.79533E+02</wgt>
<wgt id='2651'>0.79259E+02</wgt>
<wgt id='2652'>0.79884E+02</wgt>
<wgt id='2700'>0.79373E+02</wgt>
<wgt id='2701'>0.79259E+02</wgt>
<wgt id='2702'>0.79436E+02</wgt>
<wgt id='2703'>0.79328E+02</wgt>
<wgt id='2704'>0.79884E+02</wgt>
<wgt id='2705'>0.80350E+02</wgt>
<wgt id='2800'>0.86416E+02</wgt>
<wgt id='4000'>0.77802E+02</wgt>
<wgt id='4001'>0.78142E+02</wgt>
<wgt id='4002'>0.75494E+02</wgt>
<wgt id='4003'>0.76425E+02</wgt>
<wgt id='4004'>0.78939E+02</wgt>
<wgt id='4005'>0.75201E+02</wgt>
<wgt id='4006'>0.79712E+02</wgt>
<wgt id='4007'>0.76479E+02</wgt>
<wgt id='4008'>0.79012E+02</wgt>
<wgt id='4009'>0.76667E+02</wgt>
<wgt id='4010'>0.78701E+02</wgt>
<wgt id='4011'>0.78783E+02</wgt>
<wgt id='4012'>0.76011E+02</wgt>
<wgt id='4013'>0.78465E+02</wgt>
<wgt id='4014'>0.77396E+02</wgt>
<wgt id='4015'>0.78774E+02</wgt>
<wgt id='4016'>0.76537E+02</wgt>
<wgt id='4017'>0.77717E+02</wgt>
<wgt id='4018'>0.77595E+02</wgt>
<wgt id='4019'>0.79646E+02</wgt>
<wgt id='4020'>0.75101E+02</wgt>
<wgt id='4021'>0.77930E+02</wgt>
<wgt id='4022'>0.77551E+02</wgt>
<wgt id='4023'>0.77379E+02</wgt>
<wgt id='4024'>0.78170E+02</wgt>
<wgt id='4025'>0.78281E+02</wgt>
<wgt id='4026'>0.76515E+02</wgt>
<wgt id='4027'>0.76737E+02</wgt>
<wgt id='4028'>0.78481E+02</wgt>
<wgt id='4029'>0.78320E+02</wgt>
<wgt id='4030'>0.77607E+02</wgt>
<wgt id='4031'>0.77528E+02</wgt>
<wgt id='4032'>0.78151E+02</wgt>
<wgt id='4033'>0.77728E+02</wgt>
<wgt id='4034'>0.77974E+02</wgt>
<wgt id='4035'>0.77665E+02</wgt>
<wgt id='4036'>0.77799E+02</wgt>
<wgt id='4037'>0.77110E+02</wgt>
<wgt id='4038'>0.77685E+02</wgt>
<wgt id='4039'>0.75487E+02</wgt>
<wgt id='4040'>0.79854E+02</wgt>
<wgt id='4041'>0.79292E+02</wgt>
<wgt id='4042'>0.76350E+02</wgt>
<wgt id='4043'>0.76852E+02</wgt>
<wgt id='4044'>0.78850E+02</wgt>
<wgt id='4045'>0.75761E+02</wgt>
<wgt id='4046'>0.78788E+02</wgt>
<wgt id='4047'>0.77611E+02</wgt>
<wgt id='4048'>0.77953E+02</wgt>
<wgt id='4049'>0.79621E+02</wgt>
<wgt id='4050'>0.75813E+02</wgt>
<wgt id='4051'>0.77252E+02</wgt>
<wgt id='4052'>0.77649E+02</wgt>
<wgt id='4053'>0.77814E+02</wgt>
<wgt id='4054'>0.77729E+02</wgt>
<wgt id='4055'>0.77934E+02</wgt>
<wgt id='4056'>0.77875E+02</wgt>
<wgt id='4057'>0.77640E+02</wgt>
<wgt id='4058'>0.77962E+02</wgt>
<wgt id='4100'>0.78389E+02</wgt>
<wgt id='4101'>0.78097E+02</wgt>
<wgt id='4102'>0.77513E+02</wgt>
<wgt id='4103'>0.77234E+02</wgt>
<wgt id='4200'>0.78860E+02</wgt>
<wgt id='4201'>0.77262E+02</wgt>
<wgt id='4202'>0.79323E+02</wgt>
<wgt id='4203'>0.78837E+02</wgt>
<wgt id='4204'>0.79070E+02</wgt>
<wgt id='4205'>0.79988E+02</wgt>
<wgt id='4206'>0.77213E+02</wgt>
<wgt id='4207'>0.79710E+02</wgt>
<wgt id='4208'>0.78756E+02</wgt>
<wgt id='4209'>0.79093E+02</wgt>
<wgt id='4210'>0.78969E+02</wgt>
<wgt id='4211'>0.79250E+02</wgt>
<wgt id='4212'>0.78502E+02</wgt>
<wgt id='4213'>0.79276E+02</wgt>
<wgt id='4214'>0.78543E+02</wgt>
<wgt id='4215'>0.79934E+02</wgt>
<wgt id='4216'>0.76399E+02</wgt>
<wgt id='4217'>0.78680E+02</wgt>
<wgt id='4218'>0.78990E+02</wgt>
<wgt id='4219'>0.78853E+02</wgt>
<wgt id='4220'>0.79270E+02</wgt>
<wgt id='4221'>0.78964E+02</wgt>
<wgt id='4222'>0.78090E+02</wgt>
<wgt id='4223'>0.78127E+02</wgt>
<wgt id='4224'>0.79681E+02</wgt>
<wgt id='4225'>0.78938E+02</wgt>
<wgt id='4226'>0.78535E+02</wgt>
<wgt id='4227'>0.79451E+02</wgt>
<wgt id='4228'>0.78289E+02</wgt>
<wgt id='4229'>0.78812E+02</wgt>
<wgt id='4230'>0.79208E+02</wgt>
<wgt id='4231'>0.80418E+02</wgt>
<wgt id='4232'>0.76329E+02</wgt>
<wgt id='4233'>0.79146E+02</wgt>
<wgt id='4234'>0.78801E+02</wgt>
<wgt id='4235'>0.77773E+02</wgt>
<wgt id='4236'>0.79571E+02</wgt>
<wgt id='4237'>0.78735E+02</wgt>
<wgt id='4238'>0.78901E+02</wgt>
<wgt id='4239'>0.78208E+02</wgt>
<wgt id='4240'>0.79579E+02</wgt>
<wgt id='4241'>0.79490E+02</wgt>
<wgt id='4242'>0.78148E+02</wgt>
<wgt id='4243'>0.77406E+02</wgt>
<wgt id='4244'>0.80947E+02</wgt>
<wgt id='4245'>0.78437E+02</wgt>
<wgt id='4246'>0.79257E+02</wgt>
<wgt id='4247'>0.77774E+02</wgt>
<wgt id='4248'>0.79725E+02</wgt>
<wgt id='4249'>0.76817E+02</wgt>
<wgt id='4250'>0.80803E+02</wgt>
<wgt id='4251'>0.76982E+02</wgt>
<wgt id='4252'>0.79973E+02</wgt>
<wgt id='4253'>0.78732E+02</wgt>
<wgt id='4254'>0.79075E+02</wgt>
<wgt id='4255'>0.77341E+02</wgt>
<wgt id='4256'>0.79896E+02</wgt>
<wgt id='4257'>0.78347E+02</wgt>
<wgt id='4258'>0.79021E+02</wgt>
<wgt id='4300'>0.76864E+02</wgt>
<wgt id='4301'>0.77999E+02</wgt>
<wgt id='5000'>0.77109E+02</wgt>
<wgt id='5001'>0.77131E+02</wgt>
<wgt id='5002'>0.77080E+02</wgt>
<wgt id='5003'>0.76711E+02</wgt>
<wgt id='5004'>0.77472E+02</wgt>
<wgt id='5005'>0.76956E+02</wgt>
<wgt id='5006'>0.77358E+02</wgt>
<wgt id='5007'>0.77247E+02</wgt>
<wgt id='5008'>0.76996E+02</wgt>
<wgt id='5009'>0.77138E+02</wgt>
<wgt id='5010'>0.77078E+02</wgt>
<wgt id='5011'>0.76705E+02</wgt>
<wgt id='5012'>0.77499E+02</wgt>
<wgt id='5013'>0.77155E+02</wgt>
<wgt id='5014'>0.77076E+02</wgt>
<wgt id='5015'>0.77221E+02</wgt>
<wgt id='5016'>0.77221E+02</wgt>
<wgt id='5017'>0.76822E+02</wgt>
<wgt id='5018'>0.77301E+02</wgt>
<wgt id='5019'>0.76785E+02</wgt>
<wgt id='5020'>0.77556E+02</wgt>
<wgt id='5021'>0.77205E+02</wgt>
<wgt id='5022'>0.76945E+02</wgt>
<wgt id='5023'>0.77403E+02</wgt>
<wgt id='5024'>0.76402E+02</wgt>
<wgt id='5025'>0.77729E+02</wgt>
<wgt id='5026'>0.76426E+02</wgt>
<wgt id='5027'>0.77131E+02</wgt>
<wgt id='5028'>0.77046E+02</wgt>
<wgt id='5029'>0.76892E+02</wgt>
<wgt id='5030'>0.77219E+02</wgt>
<wgt id='5031'>0.77739E+02</wgt>
<wgt id='5032'>0.75217E+02</wgt>
<wgt id='5033'>0.77595E+02</wgt>
<wgt id='5034'>0.76587E+02</wgt>
<wgt id='5035'>0.76669E+02</wgt>
<wgt id='5036'>0.77696E+02</wgt>
<wgt id='5037'>0.77170E+02</wgt>
<wgt id='5038'>0.77070E+02</wgt>
<wgt id='5039'>0.76589E+02</wgt>
<wgt id='5040'>0.78376E+02</wgt>
<wgt id='5041'>0.77568E+02</wgt>
<wgt id='5042'>0.76624E+02</wgt>
<wgt id='5043'>0.78544E+02</wgt>
<wgt id='5044'>0.75708E+02</wgt>
<wgt id='5045'>0.76789E+02</wgt>
<wgt id='5046'>0.77793E+02</wgt>
<wgt id='5047'>0.76976E+02</wgt>
<wgt id='5048'>0.77523E+02</wgt>
<wgt id='5049'>0.77062E+02</wgt>
<wgt id='5050'>0.76899E+02</wgt>
<wgt id='5051'>0.76953E+02</wgt>
<wgt id='5052'>0.77194E+02</wgt>
<wgt id='5053'>0.76957E+02</wgt>
<wgt id='5054'>0.77023E+02</wgt>
<wgt id='5055'>0.76760E+02</wgt>
<wgt id='5056'>0.77535E+02</wgt>
<wgt id='5057'>0.75681E+02</wgt>
<wgt id='5058'>0.77989E+02</wgt>
<wgt id='5059'>0.77263E+02</wgt>
<wgt id='5060'>0.76981E+02</wgt>
<wgt id='5061'>0.76272E+02</wgt>
<wgt id='5062'>0.77284E+02</wgt>
<wgt id='5063'>0.78074E+02</wgt>
<wgt id='5064'>0.76955E+02</wgt>
<wgt id='5100'>0.77109E+02</wgt>
<wgt id='5101'>0.77152E+02</wgt>
<wgt id='6000'>0.77545E+02</wgt>
<wgt id='6001'>0.77209E+02</wgt>
<wgt id='6002'>0.77358E+02</wgt>
<wgt id='6003'>0.77279E+02</wgt>
<wgt id='6004'>0.76508E+02</wgt>
<wgt id='6005'>0.77680E+02</wgt>
<wgt id='6006'>0.77225E+02</wgt>
<wgt id='6007'>0.77751E+02</wgt>
<wgt id='6008'>0.77661E+02</wgt>
<wgt id='6009'>0.78051E+02</wgt>
<wgt id='6010'>0.77666E+02</wgt>
<wgt id='6011'>0.77164E+02</wgt>
<wgt id='6012'>0.77598E+02</wgt>
<wgt id='6013'>0.78045E+02</wgt>
<wgt id='6014'>0.77697E+02</wgt>
<wgt id='6015'>0.77618E+02</wgt>
<wgt id='6016'>0.78121E+02</wgt>
<wgt id='6017'>0.79800E+02</wgt>
<wgt id='6018'>0.77634E+02</wgt>
<wgt id='6019'>0.77429E+02</wgt>
<wgt id='6020'>0.77635E+02</wgt>
<wgt id='6021'>0.76853E+02</wgt>
<wgt id='6022'>0.77320E+02</wgt>
<wgt id='6023'>0.77573E+02</wgt>
<wgt id='6024'>0.77728E+02</wgt>
<wgt id='6025'>0.77155E+02</wgt>
<wgt id='6026'>0.77638E+02</wgt>
<wgt id='6027'>0.76245E+02</wgt>
<wgt id='6028'>0.77432E+02</wgt>
<wgt id='6029'>0.77381E+02</wgt>
<wgt id='6030'>0.77665E+02</wgt>
<wgt id='6031'>0.77452E+02</wgt>
<wgt id='6032'>0.77480E+02</wgt>
<wgt id='6033'>0.77538E+02</wgt>
<wgt id='6034'>0.77572E+02</wgt>
<wgt id='6035'>0.77531E+02</wgt>
<wgt id='6036'>0.77529E+02</wgt>
<wgt id='6037'>0.77539E+02</wgt>
<wgt id='6038'>0.77584E+02</wgt>
<wgt id='6039'>0.77548E+02</wgt>
<wgt id='6040'>0.77841E+02</wgt>
<wgt id='6041'>0.76741E+02</wgt>
<wgt id='6042'>0.79116E+02</wgt>
<wgt id='7000'>0.83964E+02</wgt>
<wgt id='7001'>0.84083E+02</wgt>
<wgt id='7002'>0.83857E+02</wgt>
<wgt id='7003'>0.83857E+02</wgt>
<wgt id='7004'>0.84082E+02</wgt>
<wgt id='7005'>0.83984E+02</wgt>
<wgt id='7006'>0.83956E+02</wgt>
<wgt id='7007'>0.83715E+02</wgt>
<wgt id='7008'>0.84216E+02</wgt>
<wgt id='7009'>0.83851E+02</wgt>
<wgt id='7010'>0.84085E+02</wgt>
<wgt id='7011'>0.82466E+02</wgt>
<wgt id='7012'>0.85452E+02</wgt>
<wgt id='7013'>0.84262E+02</wgt>
<wgt id='7014'>0.83675E+02</wgt>
<wgt id='7015'>0.83832E+02</wgt>
<wgt id='7016'>0.84081E+02</wgt>
<wgt id='7017'>0.83845E+02</wgt>
<wgt id='7018'>0.84078E+02</wgt>
<wgt id='7019'>0.82282E+02</wgt>
<wgt id='7020'>0.85587E+02</wgt>
<wgt id='7021'>0.84201E+02</wgt>
<wgt id='7022'>0.83691E+02</wgt>
<wgt id='7023'>0.85235E+02</wgt>
<wgt id='7024'>0.82783E+02</wgt>
<wgt id='7025'>0.83941E+02</wgt>
<wgt id='7026'>0.84235E+02</wgt>
<wgt id='7027'>0.83324E+02</wgt>
<wgt id='7028'>0.84775E+02</wgt>
<wgt id='8000'>0.74722E+02</wgt>
<wgt id='8001'>0.74708E+02</wgt>
<wgt id='8002'>0.74736E+02</wgt>
<wgt id='8003'>0.74633E+02</wgt>
<wgt id='8004'>0.74724E+02</wgt>
<wgt id='8005'>0.74859E+02</wgt>
<wgt id='8006'>0.74391E+02</wgt>
<wgt id='8007'>0.74890E+02</wgt>
<wgt id='8008'>0.74800E+02</wgt>
<wgt id='8009'>0.74129E+02</wgt>
<wgt id='8010'>0.74861E+02</wgt>
<wgt id='8011'>0.74887E+02</wgt>
<wgt id='8012'>0.74991E+02</wgt>
<wgt id='8013'>0.74714E+02</wgt>
<wgt id='8014'>0.74734E+02</wgt>
<wgt id='8015'>0.74707E+02</wgt>
<wgt id='8016'>0.74412E+02</wgt>
<wgt id='8017'>0.74553E+02</wgt>
<wgt id='8018'>0.74667E+02</wgt>
<wgt id='8019'>0.74979E+02</wgt>
<wgt id='8020'>0.74623E+02</wgt>
<wgt id='8021'>0.74422E+02</wgt>
<wgt id='8022'>0.74727E+02</wgt>
<wgt id='8023'>0.75081E+02</wgt>
<wgt id='8024'>0.75003E+02</wgt>
<wgt id='8025'>0.74700E+02</wgt>
<wgt id='8026'>0.75105E+02</wgt>
<wgt id='8027'>0.75343E+02</wgt>
<wgt id='8028'>0.74142E+02</wgt>
<wgt id='8029'>0.74030E+02</wgt>
<wgt id='3000'>0.81104E+02</wgt>
<wgt id='3001'>0.84973E+02</wgt>
<wgt id='3002'>0.82404E+02</wgt>
<wgt id='3003'>0.78471E+02</wgt>
<wgt id='3004'>0.77387E+02</wgt>
<wgt id='3005'>0.80883E+02</wgt>
<wgt id='3006'>0.87078E+02</wgt>
<wgt id='3007'>0.81900E+02</wgt>
<wgt id='3008'>0.78607E+02</wgt>
<wgt id='3009'>0.83629E+02</wgt>
<wgt id='3010'>0.75628E+02</wgt>
<wgt id='3011'>0.77966E+02</wgt>
<wgt id='3012'>0.80094E+02</wgt>
<wgt id='3013'>0.78153E+02</wgt>
<wgt id='3014'>0.80771E+02</wgt>
<wgt id='3015'>0.83559E+02</wgt>
<wgt id='3016'>0.81388E+02</wgt>
<wgt id='3017'>0.81433E+02</wgt>
<wgt id='3018'>0.82141E+02</wgt>
<wgt id='3019'>0.82079E+02</wgt>
<wgt id='3020'>0.78341E+02</wgt>
<wgt id='3021'>0.81769E+02</wgt>
<wgt id='3022'>0.85144E+02</wgt>
<wgt id='3023'>0.84844E+02</wgt>
<wgt id='3024'>0.77950E+02</wgt>
<wgt id='3025'>0.83483E+02</wgt>
<wgt id='3026'>0.81912E+02</wgt>
<wgt id='3027'>0.79443E+02</wgt>
<wgt id='3028'>0.82187E+02</wgt>
<wgt id='3029'>0.78804E+02</wgt>
<wgt id='3030'>0.82394E+02</wgt>
<wgt id='3031'>0.82908E+02</wgt>
<wgt id='3032'>0.81969E+02</wgt>
<wgt id='3033'>0.88246E+02</wgt>
<wgt id='3034'>0.77469E+02</wgt>
<wgt id='3035'>0.80379E+02</wgt>
<wgt id='3036'>0.84218E+02</wgt>
<wgt id='3037'>0.80720E+02</wgt>
<wgt id='3038'>0.79575E+02</wgt>
<wgt id='3039'>0.79409E+02</wgt>
<wgt id='3040'>0.81355E+02</wgt>
<wgt id='3041'>0.80939E+02</wgt>
<wgt id='3042'>0.82889E+02</wgt>
<wgt id='3043'>0.81684E+02</wgt>
<wgt id='3044'>0.80810E+02</wgt>
<wgt id='3045'>0.76233E+02</wgt>
<wgt id='3046'>0.82531E+02</wgt>
<wgt id='3047'>0.84583E+02</wgt>
<wgt id='3048'>0.77332E+02</wgt>
<wgt id='3049'>0.83484E+02</wgt>
<wgt id='3050'>0.80928E+02</wgt>
<wgt id='3051'>0.78697E+02</wgt>
<wgt id='3052'>0.83259E+02</wgt>
<wgt id='3053'>0.81327E+02</wgt>
<wgt id='3054'>0.82978E+02</wgt>
<wgt id='3055'>0.80594E+02</wgt>
<wgt id='3056'>0.81508E+02</wgt>
<wgt id='3057'>0.84120E+02</wgt>
<wgt id='3058'>0.85178E+02</wgt>
<wgt id='3059'>0.79968E+02</wgt>
<wgt id='3060'>0.84316E+02</wgt>
<wgt id='3061'>0.83404E+02</wgt>
<wgt id='3062'>0.83610E+02</wgt>
<wgt id='3063'>0.78742E+02</wgt>
<wgt id='3064'>0.78820E+02</wgt>
<wgt id='3065'>0.84843E+02</wgt>
<wgt id='3066'>0.79585E+02</wgt>
<wgt id='3067'>0.80495E+02</wgt>
<wgt id='3068'>0.83842E+02</wgt>
<wgt id='3069'>0.81940E+02</wgt>
<wgt id='3070'>0.79592E+02</wgt>
<wgt id='3071'>0.82426E+02</wgt>
<wgt id='3072'>0.75639E+02</wgt>
<wgt id='3073'>0.81168E+02</wgt>
<wgt id='3074'>0.78114E+02</wgt>
<wgt id='3075'>0.79549E+02</wgt>
<wgt id='3076'>0.82364E+02</wgt>
<wgt id='3077'>0.81902E+02</wgt>
<wgt id='3078'>0.84776E+02</wgt>
<wgt id='3079'>0.83391E+02</wgt>
<wgt id='3080'>0.77649E+02</wgt>
<wgt id='3081'>0.82320E+02</wgt>
<wgt id='3082'>0.81388E+02</wgt>
<wgt id='3083'>0.75050E+02</wgt>
<wgt id='3084'>0.79009E+02</wgt>
<wgt id='3085'>0.81477E+02</wgt>
<wgt id='3086'>0.83285E+02</wgt>
<wgt id='3087'>0.80957E+02</wgt>
<wgt id='3088'>0.80717E+02</wgt>
<wgt id='3089'>0.71389E+02</wgt>
<wgt id='3090'>0.81775E+02</wgt>
<wgt id='3091'>0.82382E+02</wgt>
<wgt id='3092'>0.77332E+02</wgt>
<wgt id='3093'>0.77939E+02</wgt>
<wgt id='3094'>0.81703E+02</wgt>
<wgt id='3095'>0.80238E+02</wgt>
<wgt id='3096'>0.83046E+02</wgt>
<wgt id='3097'>0.79631E+02</wgt>
<wgt id='3098'>0.80110E+02</wgt>
<wgt id='3099'>0.83596E+02</wgt>
<wgt id='3100'>0.81486E+02</wgt>
<wgt id='3200'>0.79619E+02</wgt>
<wgt id='3201'>0.79102E+02</wgt>
<wgt id='3202'>0.81545E+02</wgt>
<wgt id='3203'>0.78690E+02</wgt>
<wgt id='3204'>0.80191E+02</wgt>
<wgt id='3205'>0.83142E+02</wgt>
<wgt id='3206'>0.76092E+02</wgt>
<wgt id='3207'>0.77128E+02</wgt>
<wgt id='3208'>0.79563E+02</wgt>
<wgt id='3209'>0.80655E+02</wgt>
<wgt id='3210'>0.77150E+02</wgt>
<wgt id='3211'>0.77480E+02</wgt>
<wgt id='3212'>0.79109E+02</wgt>
<wgt id='3213'>0.77021E+02</wgt>
<wgt id='3214'>0.83080E+02</wgt>
<wgt id='3215'>0.78780E+02</wgt>
<wgt id='3216'>0.79345E+02</wgt>
<wgt id='3217'>0.79277E+02</wgt>
<wgt id='3218'>0.80187E+02</wgt>
<wgt id='3219'>0.81643E+02</wgt>
<wgt id='3220'>0.79667E+02</wgt>
<wgt id='3221'>0.78828E+02</wgt>
<wgt id='3222'>0.75550E+02</wgt>
<wgt id='3223'>0.79576E+02</wgt>
<wgt id='3224'>0.77795E+02</wgt>
<wgt id='3225'>0.81683E+02</wgt>
<wgt id='3226'>0.76751E+02</wgt>
<wgt id='3227'>0.79347E+02</wgt>
<wgt id='3228'>0.81368E+02</wgt>
<wgt id='3229'>0.79110E+02</wgt>
<wgt id='3230'>0.78784E+02</wgt>
<wgt id='3231'>0.80394E+02</wgt>
<wgt id='3232'>0.81815E+02</wgt>
<wgt id='3233'>0.82034E+02</wgt>
<wgt id='3234'>0.80082E+02</wgt>
<wgt id='3235'>0.75593E+02</wgt>
<wgt id='3236'>0.80139E+02</wgt>
<wgt id='3237'>0.81056E+02</wgt>
<wgt id='3238'>0.80539E+02</wgt>
<wgt id='3239'>0.82483E+02</wgt>
<wgt id='3240'>0.75873E+02</wgt>
<wgt id='3241'>0.86497E+02</wgt>
<wgt id='3242'>0.75675E+02</wgt>
<wgt id='3243'>0.80617E+02</wgt>
<wgt id='3244'>0.79188E+02</wgt>
<wgt id='3245'>0.78944E+02</wgt>
<wgt id='3246'>0.78692E+02</wgt>
<wgt id='3247'>0.79080E+02</wgt>
<wgt id='3248'>0.77258E+02</wgt>
<wgt id='3249'>0.79157E+02</wgt>
<wgt id='3250'>0.75538E+02</wgt>
<wgt id='3251'>0.79117E+02</wgt>
<wgt id='3252'>0.80206E+02</wgt>
<wgt id='3253'>0.81220E+02</wgt>
<wgt id='3254'>0.79643E+02</wgt>
<wgt id='3255'>0.74269E+02</wgt>
<wgt id='3256'>0.79739E+02</wgt>
<wgt id='3257'>0.73610E+02</wgt>
<wgt id='3258'>0.80951E+02</wgt>
<wgt id='3259'>0.80924E+02</wgt>
<wgt id='3260'>0.80996E+02</wgt>
<wgt id='3261'>0.78209E+02</wgt>
<wgt id='3262'>0.77160E+02</wgt>
<wgt id='3263'>0.81498E+02</wgt>
<wgt id='3264'>0.77281E+02</wgt>
<wgt id='3265'>0.79335E+02</wgt>
<wgt id='3266'>0.81056E+02</wgt>
<wgt id='3267'>0.79477E+02</wgt>
<wgt id='3268'>0.79279E+02</wgt>
<wgt id='3269'>0.80252E+02</wgt>
<wgt id='3270'>0.81482E+02</wgt>
<wgt id='3271'>0.78431E+02</wgt>
<wgt id='3272'>0.79788E+02</wgt>
<wgt id='3273'>0.77799E+02</wgt>
<wgt id='3274'>0.80286E+02</wgt>
<wgt id='3275'>0.81180E+02</wgt>
<wgt id='3276'>0.80610E+02</wgt>
<wgt id='3277'>0.83568E+02</wgt>
<wgt id='3278'>0.78658E+02</wgt>
<wgt id='3279'>0.80133E+02</wgt>
<wgt id='3280'>0.82710E+02</wgt>
<wgt id='3281'>0.79696E+02</wgt>
<wgt id='3282'>0.83224E+02</wgt>
<wgt id='3283'>0.79001E+02</wgt>
<wgt id='3284'>0.79185E+02</wgt>
<wgt id='3285'>0.79139E+02</wgt>
<wgt id='3286'>0.79435E+02</wgt>
<wgt id='3287'>0.78501E+02</wgt>
<wgt id='3288'>0.80380E+02</wgt>
<wgt id='3289'>0.80063E+02</wgt>
<wgt id='3290'>0.81036E+02</wgt>
<wgt id='3291'>0.77718E+02</wgt>
<wgt id='3292'>0.78960E+02</wgt>
<wgt id='3293'>0.80175E+02</wgt>
<wgt id='3294'>0.81078E+02</wgt>
<wgt id='3295'>0.81974E+02</wgt>
<wgt id='3296'>0.78897E+02</wgt>
<wgt id='3297'>0.83783E+02</wgt>
<wgt id='3298'>0.78741E+02</wgt>
<wgt id='3299'>0.80462E+02</wgt>
<wgt id='3300'>0.84094E+02</wgt>
<wgt id='3301'>0.79259E+02</wgt>
<wgt id='3302'>0.79884E+02</wgt>
<wgt id='3400'>0.80844E+02</wgt>
<wgt id='3401'>0.79301E+02</wgt>
<wgt id='3402'>0.81687E+02</wgt>
<wgt id='3403'>0.81483E+02</wgt>
<wgt id='3404'>0.80429E+02</wgt>
<wgt id='3405'>0.79332E+02</wgt>
<wgt id='3406'>0.83667E+02</wgt>
<wgt id='3407'>0.77053E+02</wgt>
<wgt id='3408'>0.79790E+02</wgt>
<wgt id='3409'>0.81291E+02</wgt>
<wgt id='3410'>0.81842E+02</wgt>
<wgt id='3411'>0.77547E+02</wgt>
<wgt id='3412'>0.79735E+02</wgt>
<wgt id='3413'>0.79240E+02</wgt>
<wgt id='3414'>0.83213E+02</wgt>
<wgt id='3415'>0.81426E+02</wgt>
<wgt id='3416'>0.83025E+02</wgt>
<wgt id='3417'>0.81622E+02</wgt>
<wgt id='3418'>0.80323E+02</wgt>
<wgt id='3419'>0.82204E+02</wgt>
<wgt id='3420'>0.82428E+02</wgt>
<wgt id='3421'>0.80764E+02</wgt>
<wgt id='3422'>0.81382E+02</wgt>
<wgt id='3423'>0.80623E+02</wgt>
<wgt id='3424'>0.80739E+02</wgt>
<wgt id='3425'>0.79301E+02</wgt>
<wgt id='3426'>0.80125E+02</wgt>
<wgt id='3427'>0.80092E+02</wgt>
<wgt id='3428'>0.83348E+02</wgt>
<wgt id='3429'>0.79838E+02</wgt>
<wgt id='3430'>0.78798E+02</wgt>
<wgt id='3431'>0.81253E+02</wgt>
<wgt id='3432'>0.81364E+02</wgt>
<wgt id='3433'>0.81251E+02</wgt>
<wgt id='3434'>0.80355E+02</wgt>
<wgt id='3435'>0.81407E+02</wgt>
<wgt id='3436'>0.81860E+02</wgt>
<wgt id='3437'>0.82106E+02</wgt>
<wgt id='3438'>0.82250E+02</wgt>
<wgt id='3439'>0.82626E+02</wgt>
<wgt id='3440'>0.82040E+02</wgt>
<wgt id='3441'>0.81492E+02</wgt>
<wgt id='3442'>0.79490E+02</wgt>
<wgt id='3443'>0.81680E+02</wgt>
<wgt id='3444'>0.79403E+02</wgt>
<wgt id='3445'>0.79727E+02</wgt>
<wgt id='3446'>0.81140E+02</wgt>
<wgt id='3447'>0.79953E+02</wgt>
<wgt id='3448'>0.86120E+02</wgt>
<wgt id='3449'>0.81349E+02</wgt>
<wgt id='3450'>0.78752E+02</wgt>
<wgt id='3451'>0.82808E+02</wgt>
<wgt id='3452'>0.80348E+02</wgt>
<wgt id='3453'>0.77872E+02</wgt>
<wgt id='3454'>0.79361E+02</wgt>
<wgt id='3455'>0.81625E+02</wgt>
<wgt id='3456'>0.80694E+02</wgt>
<wgt id='3457'>0.81545E+02</wgt>
<wgt id='3458'>0.79132E+02</wgt>
<wgt id='3459'>0.81498E+02</wgt>
<wgt id='3460'>0.81568E+02</wgt>
<wgt id='3461'>0.82298E+02</wgt>
<wgt id='3462'>0.80561E+02</wgt>
<wgt id='3463'>0.80852E+02</wgt>
<wgt id='3464'>0.81205E+02</wgt>
<wgt id='3465'>0.80413E+02</wgt>
<wgt id='3466'>0.80005E+02</wgt>
<wgt id='3467'>0.82304E+02</wgt>
<wgt id='3468'>0.81724E+02</wgt>
<wgt id='3469'>0.82952E+02</wgt>
<wgt id='3470'>0.80993E+02</wgt>
<wgt id='3471'>0.78818E+02</wgt>
<wgt id='3472'>0.79059E+02</wgt>
<wgt id='3473'>0.81881E+02</wgt>
<wgt id='3474'>0.80539E+02</wgt>
<wgt id='3475'>0.82117E+02</wgt>
<wgt id='3476'>0.84237E+02</wgt>
<wgt id='3477'>0.78065E+02</wgt>
<wgt id='3478'>0.81213E+02</wgt>
<wgt id='3479'>0.77432E+02</wgt>
<wgt id='3480'>0.81551E+02</wgt>
<wgt id='3481'>0.82062E+02</wgt>
<wgt id='3482'>0.80776E+02</wgt>
<wgt id='3483'>0.80475E+02</wgt>
<wgt id='3484'>0.80179E+02</wgt>
<wgt id='3485'>0.79713E+02</wgt>
<wgt id='3486'>0.81249E+02</wgt>
<wgt id='3487'>0.78461E+02</wgt>
<wgt id='3488'>0.79870E+02</wgt>
<wgt id='3489'>0.78737E+02</wgt>
<wgt id='3490'>0.78099E+02</wgt>
<wgt id='3491'>0.82741E+02</wgt>
<wgt id='3492'>0.82122E+02</wgt>
<wgt id='3493'>0.79589E+02</wgt>
<wgt id='3494'>0.82248E+02</wgt>
<wgt id='3495'>0.81614E+02</wgt>
<wgt id='3496'>0.81675E+02</wgt>
<wgt id='3497'>0.80791E+02</wgt>
<wgt id='3498'>0.81107E+02</wgt>
<wgt id='3499'>0.80365E+02</wgt>
<wgt id='3500'>0.81017E+02</wgt>
</rwgt>
</event>
<event>
     13 322200  8.11039E+01  1.31327E+01 -1.00000E+00  1.79482E-01
      21    -1     0     0   502   503  0.000000000E+00  0.000000000E+00  4.258378822E+02  4.258378822E+02  0.000000000E+00  0.00000E+00  9.000E+00
       2    -1     0     0   503     0  0.000000000E+00  0.000000000E+00 -7.337483646E+02  7.337483646E+02  0.000000000E+00  0.00000E+00  9.000E+00
       6     2     1     2   502     0 -1.210464063E+01  8.949338075E+01  3.021432088E+02  3.595712608E+02  1.727581704E+02  0.00000E+00  9.000E+00
      -6     2     1     2     0   512  5.222281453E+00 -1.006781896E+02 -1.017584010E+01  1.999933639E+02  1.724251368E+02  0.00000E+00  9.000E+00
       2     1     1     2   512     0  6.882359178E+00  1.118480883E+01 -5.998778511E+02  6.000216222E+02  2.100000000E-01  0.00000E+00  9.000E+00
      24     2     3     3     0     0  1.282119558E+01  7.504558178E+01  3.110257150E+02  3.290010347E+02  7.555437143E+01  0.00000E+00  9.000E+00
       5     1     3     3   502     0 -2.492583621E+01  1.444779897E+01 -8.882506215E+00  3.057022608E+01  5.060000000E+00  0.00000E+00 -1.000E+00
     -24     2     4     4     0     0 -2.569772764E+01 -1.283571216E+02 -2.441429973E+01  1.558288128E+02  8.093600565E+01  0.00000E+00  9.000E+00
      -5     1     4     4     0   512  3.092000910E+01  2.767893199E+01  1.423845963E+01  4.416455107E+01  5.060000000E+00  0.00000E+00  1.000E+00
     -13     1     6     6     0     0 -2.074778917E+01  6.960963444E+01  2.276438301E+02  2.389512430E+02  1.057000000E-01  0.00000E+00  1.000E+00
      14     1     6     6     0     0  3.356898475E+01  5.435947338E+00  8.338188489E+01  9.004979171E+01  0.000000000E+00  0.00000E+00 -1.000E+00
      11     1     8     8     0     0  1.698285158E+01 -1.803711578E+00  7.276233048E+00  1.856378708E+01  5.100000000E-04  0.00000E+00 -1.000E+00
     -12     1     8     8     0     0 -4.268057922E+01 -1.265534100E+02 -3.169053278E+01  1.372650257E+02  0.000000000E+00  0.00000E+00  1.000E+00
#rwgt            1           1   737.06179575822046               10        4102           0
<rwgt>
<wgt id='1001'>0.81104E+02</wgt>
<wgt id='1002'>0.83062E+02</wgt>
<wgt id='1003'>0.78699E+02</wgt>
<wgt id='1004'>0.68146E+02</wgt>
<wgt id='1005'>0.69324E+02</wgt>
<wgt id='1006'>0.66632E+02</wgt>
<wgt id='1007'>0.98256E+02</wgt>
<wgt id='1008'>0.10144E+03</wgt>
<wgt id='1009'>0.94462E+02</wgt>
<wgt id='2000'>0.81104E+02</wgt>
<wgt id='2001'>0.81161E+02</wgt>
<wgt id='2002'>0.80897E+02</wgt>
<wgt id='2003'>0.81110E+02</wgt>
<wgt id='2004'>0.81293E+02</wgt>
<wgt id='2005'>0.81171E+02</wgt>
<wgt id='2006'>0.81276E+02</wgt>
<wgt id='2007'>0.81303E+02</wgt>
<wgt id='2008'>0.81498E+02</wgt>
<wgt id='2009'>0.80980E+02</wgt>
<wgt id='2010'>0.81063E+02</wgt>
<wgt id='2011'>0.80784E+02</wgt>
<wgt id='2012'>0.81248E+02</wgt>
<wgt id='2013'>0.81184E+02</wgt>
<wgt id='2014'>0.81328E+02</wgt>
<wgt id='2015'>0.81272E+02</wgt>
<wgt id='2016'>0.81106E+02</wgt>
<wgt id='2017'>0.81130E+02</wgt>
<wgt id='2018'>0.81074E+02</wgt>
<wgt id='2019'>0.81234E+02</wgt>
<wgt id='2020'>0.80986E+02</wgt>
<wgt id='2021'>0.81011E+02</wgt>
<wgt id='2022'>0.81105E+02</wgt>
<wgt id='2023'>0.81107E+02</wgt>
<wgt id='2024'>0.81045E+02</wgt>
<wgt id='2025'>0.81024E+02</wgt>
<wgt id='2026'>0.81058E+02</wgt>
<wgt id='2027'>0.80827E+02</wgt>
<wgt id='2028'>0.81180E+02</wgt>
<wgt id='2029'>0.80772E+02</wgt>
<wgt id='2030'>0.81059E+02</wgt>
<wgt id='2031'>0.80841E+02</wgt>
<wgt id='2032'>0.81165E+02</wgt>
<wgt id='2033'>0.81015E+02</wgt>
<wgt id='2034'>0.80987E+02</wgt>
<wgt id='2035'>0.81102E+02</wgt>
<wgt id='2036'>0.81295E+02</wgt>
<wgt id='2037'>0.81097E+02</wgt>
<wgt id='2038'>0.81062E+02</wgt>
<wgt id='2039'>0.81125E+02</wgt>
<wgt id='2040'>0.81032E+02</wgt>
<wgt id='2041'>0.81106E+02</wgt>
<wgt id='2042'>0.81124E+02</wgt>
<wgt id='2043'>0.81065E+02</wgt>
<wgt id='2044'>0.81156E+02</wgt>
<wgt id='2045'>0.81132E+02</wgt>
<wgt id='2046'>0.81118E+02</wgt>
<wgt id='2047'>0.81078E+02</wgt>
<wgt id='2048'>0.81065E+02</wgt>
<wgt id='2049'>0.81041E+02</wgt>
<wgt id='2050'>0.81068E+02</wgt>
<wgt id='2051'>0.81098E+02</wgt>
<wgt id='2052'>0.81175E+02</wgt>
<wgt id='2053'>0.81095E+02</wgt>
<wgt id='2054'>0.81100E+02</wgt>
<wgt id='2055'>0.81117E+02</wgt>
<wgt id='2056'>0.81068E+02</wgt>
<wgt id='2057'>0.81131E+02</wgt>
<wgt id='2058'>0.81115E+02</wgt>
<wgt id='2059'>0.81111E+02</wgt>
<wgt id='2060'>0.81101E+02</wgt>
<wgt id='2061'>0.81092E+02</wgt>
<wgt id='2062'>0.81165E+02</wgt>
<wgt id='2063'>0.81124E+02</wgt>
<wgt id='2064'>0.81118E+02</wgt>
<wgt id='2065'>0.81171E+02</wgt>
<wgt id='2066'>0.81104E+02</wgt>
<wgt id='2067'>0.81128E+02</wgt>
<wgt id='2068'>0.81119E+02</wgt>
<wgt id='2069'>0.81108E+02</wgt>
<wgt id='2070'>0.81112E+02</wgt>
<wgt id='2071'>0.81107E+02</wgt>
<wgt id='2072'>0.81107E+02</wgt>
<wgt id='2073'>0.81119E+02</wgt>
<wgt id='2074'>0.81090E+02</wgt>
<wgt id='2075'>0.81090E+02</wgt>
<wgt id='2076'>0.81092E+02</wgt>
<wgt id='2077'>0.81148E+02</wgt>
<wgt id='2078'>0.81112E+02</wgt>
<wgt id='2079'>0.81085E+02</wgt>
<wgt id='2080'>0.81112E+02</wgt>
<wgt id='2081'>0.81096E+02</wgt>
<wgt id='2082'>0.81115E+02</wgt>
<wgt id='2083'>0.81132E+02</wgt>
<wgt id='2084'>0.81111E+02</wgt>
<wgt id='2085'>0.81104E+02</wgt>
<wgt id='2086'>0.81094E+02</wgt>
<wgt id='2087'>0.81111E+02</wgt>
<wgt id='2088'>0.81098E+02</wgt>
<wgt id='2089'>0.81097E+02</wgt>
<wgt id='2090'>0.81118E+02</wgt>
<wgt id='2091'>0.81104E+02</wgt>
<wgt id='2092'>0.81124E+02</wgt>
<wgt id='2093'>0.81091E+02</wgt>
<wgt id='2094'>0.81107E+02</wgt>
<wgt id='2095'>0.81115E+02</wgt>
<wgt id='2096'>0.81095E+02</wgt>
<wgt id='2097'>0.81112E+02</wgt>
<wgt id='2098'>0.81101E+02</wgt>
<wgt id='2099'>0.81114E+02</wgt>
<wgt id='2100'>0.81104E+02</wgt>
<wgt id='2101'>0.78721E+02</wgt>
<wgt id='2102'>0.83481E+02</wgt>
<wgt id='2200'>0.81164E+02</wgt>
<wgt id='2201'>0.70173E+02</wgt>
<wgt id='2202'>0.72229E+02</wgt>
<wgt id='2203'>0.74573E+02</wgt>
<wgt id='2204'>0.76773E+02</wgt>
<wgt id='2205'>0.80149E+02</wgt>
<wgt id='2206'>0.82427E+02</wgt>
<wgt id='2207'>0.85465E+02</wgt>
<wgt id='2208'>0.87738E+02</wgt>
<wgt id='2300'>0.84782E+02</wgt>
<wgt id='2301'>0.84895E+02</wgt>
<wgt id='2302'>0.84698E+02</wgt>
<wgt id='2303'>0.84867E+02</wgt>
<wgt id='2304'>0.84984E+02</wgt>
<wgt id='2305'>0.84977E+02</wgt>
<wgt id='2306'>0.84765E+02</wgt>
<wgt id='2307'>0.84987E+02</wgt>
<wgt id='2308'>0.84697E+02</wgt>
<wgt id='2309'>0.84981E+02</wgt>
<wgt id='2310'>0.84625E+02</wgt>
<wgt id='2311'>0.84688E+02</wgt>
<wgt id='2312'>0.84975E+02</wgt>
<wgt id='2313'>0.84713E+02</wgt>
<wgt id='2314'>0.84933E+02</wgt>
<wgt id='2315'>0.84738E+02</wgt>
<wgt id='2316'>0.84816E+02</wgt>
<wgt id='2317'>0.84921E+02</wgt>
<wgt id='2318'>0.84950E+02</wgt>
<wgt id='2319'>0.84637E+02</wgt>
<wgt id='2320'>0.84661E+02</wgt>
<wgt id='2321'>0.84600E+02</wgt>
<wgt id='2322'>0.84773E+02</wgt>
<wgt id='2323'>0.84662E+02</wgt>
<wgt id='2324'>0.84619E+02</wgt>
<wgt id='2325'>0.84841E+02</wgt>
<wgt id='2326'>0.84864E+02</wgt>
<wgt id='2327'>0.84810E+02</wgt>
<wgt id='2328'>0.84544E+02</wgt>
<wgt id='2329'>0.84603E+02</wgt>
<wgt id='2330'>0.85099E+02</wgt>
<wgt id='2331'>0.84938E+02</wgt>
<wgt id='2332'>0.84860E+02</wgt>
<wgt id='2333'>0.84958E+02</wgt>
<wgt id='2334'>0.84818E+02</wgt>
<wgt id='2335'>0.85050E+02</wgt>
<wgt id='2336'>0.84853E+02</wgt>
<wgt id='2337'>0.84755E+02</wgt>
<wgt id='2338'>0.84794E+02</wgt>
<wgt id='2339'>0.84763E+02</wgt>
<wgt id='2340'>0.84723E+02</wgt>
<wgt id='2341'>0.84840E+02</wgt>
<wgt id='2342'>0.84700E+02</wgt>
<wgt id='2343'>0.84689E+02</wgt>
<wgt id='2344'>0.84802E+02</wgt>
<wgt id='2345'>0.84845E+02</wgt>
<wgt id='2346'>0.84870E+02</wgt>
<wgt id='2347'>0.84795E+02</wgt>
<wgt id='2348'>0.84803E+02</wgt>
<wgt id='2349'>0.84769E+02</wgt>
<wgt id='2350'>0.84740E+02</wgt>
<wgt id='2351'>0.84866E+02</wgt>
<wgt id='2352'>0.84726E+02</wgt>
<wgt id='2353'>0.84750E+02</wgt>
<wgt id='2354'>0.84789E+02</wgt>
<wgt id='2355'>0.84671E+02</wgt>
<wgt id='2356'>0.84792E+02</wgt>
<wgt id='2357'>0.84760E+02</wgt>
<wgt id='2358'>0.84724E+02</wgt>
<wgt id='2359'>0.84782E+02</wgt>
<wgt id='2360'>0.84809E+02</wgt>
<wgt id='2361'>0.84781E+02</wgt>
<wgt id='2362'>0.84807E+02</wgt>
<wgt id='2363'>0.84827E+02</wgt>
<wgt id='2364'>0.84753E+02</wgt>
<wgt id='2365'>0.84770E+02</wgt>
<wgt id='2366'>0.84798E+02</wgt>
<wgt id='2367'>0.84740E+02</wgt>
<wgt id='2368'>0.84807E+02</wgt>
<wgt id='2369'>0.84776E+02</wgt>
<wgt id='2370'>0.84810E+02</wgt>
<wgt id='2371'>0.84768E+02</wgt>
<wgt id='2372'>0.84770E+02</wgt>
<wgt id='2373'>0.84734E+02</wgt>
<wgt id='2374'>0.84825E+02</wgt>
<wgt id='2375'>0.84764E+02</wgt>
<wgt id='2376'>0.84784E+02</wgt>
<wgt id='2377'>0.84806E+02</wgt>
<wgt id='2378'>0.84792E+02</wgt>
<wgt id='2379'>0.84778E+02</wgt>
<wgt id='2380'>0.84772E+02</wgt>
<wgt id='2381'>0.84785E+02</wgt>
<wgt id='2382'>0.84766E+02</wgt>
<wgt id='2383'>0.84793E+02</wgt>
<wgt id='2384'>0.84782E+02</wgt>
<wgt id='2385'>0.84787E+02</wgt>
<wgt id='2386'>0.84762E+02</wgt>
<wgt id='2387'>0.84771E+02</wgt>
<wgt id='2388'>0.84783E+02</wgt>
<wgt id='2389'>0.84784E+02</wgt>
<wgt id='2390'>0.84786E+02</wgt>
<wgt id='2391'>0.84784E+02</wgt>
<wgt id='2392'>0.84788E+02</wgt>
<wgt id='2393'>0.84786E+02</wgt>
<wgt id='2394'>0.84797E+02</wgt>
<wgt id='2395'>0.84783E+02</wgt>
<wgt id='2396'>0.84775E+02</wgt>
<wgt id='2397'>0.84768E+02</wgt>
<wgt id='2398'>0.84781E+02</wgt>
<wgt id='2399'>0.84792E+02</wgt>
<wgt id='2400'>0.84784E+02</wgt>
<wgt id='2401'>0.82329E+02</wgt>
<wgt id='2402'>0.87224E+02</wgt>
<wgt id='2500'>0.80949E+02</wgt>
<wgt id='2501'>0.85722E+02</wgt>
<wgt id='2600'>0.78721E+02</wgt>
<wgt id='2601'>0.78679E+02</wgt>
<wgt id='2602'>0.78708E+02</wgt>
<wgt id='2603'>0.78683E+02</wgt>
<wgt id='2604'>0.78820E+02</wgt>
<wgt id='2605'>0.78610E+02</wgt>
<wgt id='2606'>0.78542E+02</wgt>
<wgt id='2607'>0.78865E+02</wgt>
<wgt id='2608'>0.78650E+02</wgt>
<wgt id='2609'>0.78664E+02</wgt>
<wgt id='2610'>0.78677E+02</wgt>
<wgt id='2611'>0.78657E+02</wgt>
<wgt id='2612'>0.79002E+02</wgt>
<wgt id='2613'>0.78688E+02</wgt>
<wgt id='2614'>0.78699E+02</wgt>
<wgt id='2615'>0.78589E+02</wgt>
<wgt id='2616'>0.78699E+02</wgt>
<wgt id='2617'>0.78594E+02</wgt>
<wgt id='2618'>0.78547E+02</wgt>
<wgt id='2619'>0.78768E+02</wgt>
<wgt id='2620'>0.78733E+02</wgt>
<wgt id='2621'>0.78704E+02</wgt>
<wgt id='2622'>0.78821E+02</wgt>
<wgt id='2623'>0.78720E+02</wgt>
<wgt id='2624'>0.78729E+02</wgt>
<wgt id='2625'>0.78660E+02</wgt>
<wgt id='2626'>0.78708E+02</wgt>
<wgt id='2627'>0.78690E+02</wgt>
<wgt id='2628'>0.78736E+02</wgt>
<wgt id='2629'>0.78720E+02</wgt>
<wgt id='2630'>0.78716E+02</wgt>
<wgt id='2631'>0.78702E+02</wgt>
<wgt id='2632'>0.78733E+02</wgt>
<wgt id='2633'>0.78712E+02</wgt>
<wgt id='2634'>0.78719E+02</wgt>
<wgt id='2635'>0.78719E+02</wgt>
<wgt id='2636'>0.78709E+02</wgt>
<wgt id='2637'>0.78720E+02</wgt>
<wgt id='2638'>0.78737E+02</wgt>
<wgt id='2639'>0.78720E+02</wgt>
<wgt id='2640'>0.78723E+02</wgt>
<wgt id='2641'>0.78728E+02</wgt>
<wgt id='2642'>0.78726E+02</wgt>
<wgt id='2643'>0.78729E+02</wgt>
<wgt id='2644'>0.78717E+02</wgt>
<wgt id='2645'>0.78722E+02</wgt>
<wgt id='2646'>0.78712E+02</wgt>
<wgt id='2647'>0.78726E+02</wgt>
<wgt id='2648'>0.78724E+02</wgt>
<wgt id='2649'>0.78725E+02</wgt>
<wgt id='2650'>0.78721E+02</wgt>
<wgt id='2651'>0.77257E+02</wgt>
<wgt id='2652'>0.80095E+02</wgt>
<wgt id='2700'>0.75847E+02</wgt>
<wgt id='2701'>0.77257E+02</wgt>
<wgt id='2702'>0.78034E+02</wgt>
<wgt id='2703'>0.79328E+02</wgt>
<wgt id='2704'>0.80095E+02</wgt>
<wgt id='2705'>0.81390E+02</wgt>
<wgt id='2800'>0.80065E+02</wgt>
<wgt id='4000'>0.79608E+02</wgt>
<wgt id='4001'>0.79947E+02</wgt>
<wgt id='4002'>0.79475E+02</wgt>
<wgt id='4003'>0.80138E+02</wgt>
<wgt id='4004'>0.78933E+02</wgt>
<wgt id='4005'>0.79187E+02</wgt>
<wgt id='4006'>0.79959E+02</wgt>
<wgt id='4007'>0.80590E+02</wgt>
<wgt id='4008'>0.78631E+02</wgt>
<wgt id='4009'>0.80107E+02</wgt>
<wgt id='4010'>0.79211E+02</wgt>
<wgt id='4011'>0.79867E+02</wgt>
<wgt id='4012'>0.79346E+02</wgt>
<wgt id='4013'>0.80101E+02</wgt>
<wgt id='4014'>0.79166E+02</wgt>
<wgt id='4015'>0.79274E+02</wgt>
<wgt id='4016'>0.79715E+02</wgt>
<wgt id='4017'>0.79512E+02</wgt>
<wgt id='4018'>0.79743E+02</wgt>
<wgt id='4019'>0.80153E+02</wgt>
<wgt id='4020'>0.78747E+02</wgt>
<wgt id='4021'>0.79651E+02</wgt>
<wgt id='4022'>0.79506E+02</wgt>
<wgt id='4023'>0.79296E+02</wgt>
<wgt id='4024'>0.79879E+02</wgt>
<wgt id='4025'>0.79864E+02</wgt>
<wgt id='4026'>0.78959E+02</wgt>
<wgt id='4027'>0.79438E+02</wgt>
<wgt id='4028'>0.79758E+02</wgt>
<wgt id='4029'>0.78777E+02</wgt>
<wgt id='4030'>0.79754E+02</wgt>
<wgt id='4031'>0.79516E+02</wgt>
<wgt id='4032'>0.79265E+02</wgt>
<wgt id='4033'>0.79456E+02</wgt>
<wgt id='4034'>0.79544E+02</wgt>
<wgt id='4035'>0.80499E+02</wgt>
<wgt id='4036'>0.78887E+02</wgt>
<wgt id='4037'>0.80693E+02</wgt>
<wgt id='4038'>0.78682E+02</wgt>
<wgt id='4039'>0.80825E+02</wgt>
<wgt id='4040'>0.78321E+02</wgt>
<wgt id='4041'>0.79502E+02</wgt>
<wgt id='4042'>0.79618E+02</wgt>
<wgt id='4043'>0.78650E+02</wgt>
<wgt id='4044'>0.79948E+02</wgt>
<wgt id='4045'>0.81320E+02</wgt>
<wgt id='4046'>0.78783E+02</wgt>
<wgt id='4047'>0.78554E+02</wgt>
<wgt id='4048'>0.79999E+02</wgt>
<wgt id='4049'>0.79449E+02</wgt>
<wgt id='4050'>0.79691E+02</wgt>
<wgt id='4051'>0.80777E+02</wgt>
<wgt id='4052'>0.78497E+02</wgt>
<wgt id='4053'>0.80383E+02</wgt>
<wgt id='4054'>0.78537E+02</wgt>
<wgt id='4055'>0.79978E+02</wgt>
<wgt id='4056'>0.79152E+02</wgt>
<wgt id='4057'>0.78841E+02</wgt>
<wgt id='4058'>0.80129E+02</wgt>
<wgt id='4100'>0.80381E+02</wgt>
<wgt id='4101'>0.80017E+02</wgt>
<wgt id='4102'>0.79164E+02</wgt>
<wgt id='4103'>0.78694E+02</wgt>
<wgt id='4200'>0.76575E+02</wgt>
<wgt id='4201'>0.76693E+02</wgt>
<wgt id='4202'>0.76659E+02</wgt>
<wgt id='4203'>0.75990E+02</wgt>
<wgt id='4204'>0.77052E+02</wgt>
<wgt id='4205'>0.76537E+02</wgt>
<wgt id='4206'>0.76701E+02</wgt>
<wgt id='4207'>0.76394E+02</wgt>
<wgt id='4208'>0.76730E+02</wgt>
<wgt id='4209'>0.76707E+02</wgt>
<wgt id='4210'>0.76582E+02</wgt>
<wgt id='4211'>0.77551E+02</wgt>
<wgt id='4212'>0.75799E+02</wgt>
<wgt id='4213'>0.76724E+02</wgt>
<wgt id='4214'>0.76337E+02</wgt>
<wgt id='4215'>0.76697E+02</wgt>
<wgt id='4216'>0.76160E+02</wgt>
<wgt id='4217'>0.76213E+02</wgt>
<wgt id='4218'>0.76846E+02</wgt>
<wgt id='4219'>0.75531E+02</wgt>
<wgt id='4220'>0.77509E+02</wgt>
<wgt id='4221'>0.75970E+02</wgt>
<wgt id='4222'>0.77231E+02</wgt>
<wgt id='4223'>0.77163E+02</wgt>
<wgt id='4224'>0.75890E+02</wgt>
<wgt id='4225'>0.75116E+02</wgt>
<wgt id='4226'>0.77883E+02</wgt>
<wgt id='4227'>0.77028E+02</wgt>
<wgt id='4228'>0.76186E+02</wgt>
<wgt id='4229'>0.76061E+02</wgt>
<wgt id='4230'>0.76900E+02</wgt>
<wgt id='4231'>0.76518E+02</wgt>
<wgt id='4232'>0.76597E+02</wgt>
<wgt id='4233'>0.76823E+02</wgt>
<wgt id='4234'>0.76186E+02</wgt>
<wgt id='4235'>0.76944E+02</wgt>
<wgt id='4236'>0.76255E+02</wgt>
<wgt id='4237'>0.76630E+02</wgt>
<wgt id='4238'>0.76355E+02</wgt>
<wgt id='4239'>0.77323E+02</wgt>
<wgt id='4240'>0.75164E+02</wgt>
<wgt id='4241'>0.76146E+02</wgt>
<wgt id='4242'>0.77038E+02</wgt>
<wgt id='4243'>0.76557E+02</wgt>
<wgt id='4244'>0.76735E+02</wgt>
<wgt id='4245'>0.75719E+02</wgt>
<wgt id='4246'>0.77416E+02</wgt>
<wgt id='4247'>0.76290E+02</wgt>
<wgt id='4248'>0.76720E+02</wgt>
<wgt id='4249'>0.77660E+02</wgt>
<wgt id='4250'>0.75282E+02</wgt>
<wgt id='4251'>0.75625E+02</wgt>
<wgt id='4252'>0.77091E+02</wgt>
<wgt id='4253'>0.76146E+02</wgt>
<wgt id='4254'>0.76871E+02</wgt>
<wgt id='4255'>0.76751E+02</wgt>
<wgt id='4256'>0.76355E+02</wgt>
<wgt id='4257'>0.75149E+02</wgt>
<wgt id='4258'>0.76990E+02</wgt>
<wgt id='4300'>0.78816E+02</wgt>
<wgt id='4301'>0.77946E+02</wgt>
<wgt id='5000'>0.79289E+02</wgt>
<wgt id='5001'>0.79323E+02</wgt>
<wgt id='5002'>0.79245E+02</wgt>
<wgt id='5003'>0.79307E+02</wgt>
<wgt id='5004'>0.79272E+02</wgt>
<wgt id='5005'>0.79290E+02</wgt>
<wgt id='5006'>0.79287E+02</wgt>
<wgt id='5007'>0.79345E+02</wgt>
<wgt id='5008'>0.79243E+02</wgt>
<wgt id='5009'>0.79394E+02</wgt>
<wgt id='5010'>0.79180E+02</wgt>
<wgt id='5011'>0.79457E+02</wgt>
<wgt id='5012'>0.79127E+02</wgt>
<wgt id='5013'>0.79398E+02</wgt>
<wgt id='5014'>0.79211E+02</wgt>
<wgt id='5015'>0.78897E+02</wgt>
<wgt id='5016'>0.78897E+02</wgt>
<wgt id='5017'>0.79737E+02</wgt>
<wgt id='5018'>0.78986E+02</wgt>
<wgt id='5019'>0.79602E+02</wgt>
<wgt id='5020'>0.78860E+02</wgt>
<wgt id='5021'>0.79386E+02</wgt>
<wgt id='5022'>0.79136E+02</wgt>
<wgt id='5023'>0.79191E+02</wgt>
<wgt id='5024'>0.79523E+02</wgt>
<wgt id='5025'>0.78972E+02</wgt>
<wgt id='5026'>0.79645E+02</wgt>
<wgt id='5027'>0.79322E+02</wgt>
<wgt id='5028'>0.79199E+02</wgt>
<wgt id='5029'>0.79899E+02</wgt>
<wgt id='5030'>0.78942E+02</wgt>
<wgt id='5031'>0.78993E+02</wgt>
<wgt id='5032'>0.80180E+02</wgt>
<wgt id='5033'>0.79295E+02</wgt>
<wgt id='5034'>0.79282E+02</wgt>
<wgt id='5035'>0.79291E+02</wgt>
<wgt id='5036'>0.79287E+02</wgt>
<wgt id='5037'>0.79193E+02</wgt>
<wgt id='5038'>0.79343E+02</wgt>
<wgt id='5039'>0.79495E+02</wgt>
<wgt id='5040'>0.78780E+02</wgt>
<wgt id='5041'>0.79559E+02</wgt>
<wgt id='5042'>0.79019E+02</wgt>
<wgt id='5043'>0.79386E+02</wgt>
<wgt id='5044'>0.79248E+02</wgt>
<wgt id='5045'>0.79147E+02</wgt>
<wgt id='5046'>0.79474E+02</wgt>
<wgt id='5047'>0.79323E+02</wgt>
<wgt id='5048'>0.79137E+02</wgt>
<wgt id='5049'>0.79257E+02</wgt>
<wgt id='5050'>0.79357E+02</wgt>
<wgt id='5051'>0.79417E+02</wgt>
<wgt id='5052'>0.79170E+02</wgt>
<wgt id='5053'>0.79143E+02</wgt>
<wgt id='5054'>0.79432E+02</wgt>
<wgt id='5055'>0.79355E+02</wgt>
<wgt id='5056'>0.79303E+02</wgt>
<wgt id='5057'>0.79048E+02</wgt>
<wgt id='5058'>0.79457E+02</wgt>
<wgt id='5059'>0.79271E+02</wgt>
<wgt id='5060'>0.79310E+02</wgt>
<wgt id='5061'>0.79509E+02</wgt>
<wgt id='5062'>0.79315E+02</wgt>
<wgt id='5063'>0.79558E+02</wgt>
<wgt id='5064'>0.79240E+02</wgt>
<wgt id='5100'>0.79289E+02</wgt>
<wgt id='5101'>0.79313E+02</wgt>
<wgt id='6000'>0.79511E+02</wgt>
<wgt id='6001'>0.79628E+02</wgt>
<wgt id='6002'>0.79624E+02</wgt>
<wgt id='6003'>0.79459E+02</wgt>
<wgt id='6004'>0.79466E+02</wgt>
<wgt id='6005'>0.79382E+02</wgt>
<wgt id='6006'>0.79754E+02</wgt>
<wgt id='6007'>0.79381E+02</wgt>
<wgt id='6008'>0.78784E+02</wgt>
<wgt id='6009'>0.79752E+02</wgt>
<wgt id='6010'>0.78435E+02</wgt>
<wgt id='6011'>0.79479E+02</wgt>
<wgt id='6012'>0.79761E+02</wgt>
<wgt id='6013'>0.79283E+02</wgt>
<wgt id='6014'>0.79436E+02</wgt>
<wgt id='6015'>0.79033E+02</wgt>
<wgt id='6016'>0.79582E+02</wgt>
<wgt id='6017'>0.79497E+02</wgt>
<wgt id='6018'>0.79359E+02</wgt>
<wgt id='6019'>0.79537E+02</wgt>
<wgt id='6020'>0.79668E+02</wgt>
<wgt id='6021'>0.79559E+02</wgt>
<wgt id='6022'>0.79549E+02</wgt>
<wgt id='6023'>0.79529E+02</wgt>
<wgt id='6024'>0.79577E+02</wgt>
<wgt id='6025'>0.79736E+02</wgt>
<wgt id='6026'>0.79532E+02</wgt>
<wgt id='6027'>0.79526E+02</wgt>
<wgt id='6028'>0.79377E+02</wgt>
<wgt id='6029'>0.79399E+02</wgt>
<wgt id='6030'>0.79962E+02</wgt>
<wgt id='6031'>0.79355E+02</wgt>
<wgt id='6032'>0.79552E+02</wgt>
<wgt id='6033'>0.79410E+02</wgt>
<wgt id='6034'>0.79708E+02</wgt>
<wgt id='6035'>0.79558E+02</wgt>
<wgt id='6036'>0.79931E+02</wgt>
<wgt id='6037'>0.79519E+02</wgt>
<wgt id='6038'>0.79566E+02</wgt>
<wgt id='6039'>0.79617E+02</wgt>
<wgt id='6040'>0.79500E+02</wgt>
<wgt id='6041'>0.78325E+02</wgt>
<wgt id='6042'>0.80379E+02</wgt>
<wgt id='7000'>0.79185E+02</wgt>
<wgt id='7001'>0.78730E+02</wgt>
<wgt id='7002'>0.78895E+02</wgt>
<wgt id='7003'>0.78803E+02</wgt>
<wgt id='7004'>0.78823E+02</wgt>
<wgt id='7005'>0.78930E+02</wgt>
<wgt id='7006'>0.78695E+02</wgt>
<wgt id='7007'>0.79300E+02</wgt>
<wgt id='7008'>0.78339E+02</wgt>
<wgt id='7009'>0.78527E+02</wgt>
<wgt id='7010'>0.79110E+02</wgt>
<wgt id='7011'>0.79078E+02</wgt>
<wgt id='7012'>0.78550E+02</wgt>
<wgt id='7013'>0.78668E+02</wgt>
<wgt id='7014'>0.78950E+02</wgt>
<wgt id='7015'>0.78712E+02</wgt>
<wgt id='7016'>0.78700E+02</wgt>
<wgt id='7017'>0.78831E+02</wgt>
<wgt id='7018'>0.78795E+02</wgt>
<wgt id='7019'>0.78667E+02</wgt>
<wgt id='7020'>0.78966E+02</wgt>
<wgt id='7021'>0.78810E+02</wgt>
<wgt id='7022'>0.78787E+02</wgt>
<wgt id='7023'>0.78543E+02</wgt>
<wgt id='7024'>0.79092E+02</wgt>
<wgt id='7025'>0.77983E+02</wgt>
<wgt id='7026'>0.79555E+02</wgt>
<wgt id='7027'>0.78500E+02</wgt>
<wgt id='7028'>0.79182E+02</wgt>
<wgt id='8000'>0.79440E+02</wgt>
<wgt id='8001'>0.79428E+02</wgt>
<wgt id='8002'>0.79464E+02</wgt>
<wgt id='8003'>0.79443E+02</wgt>
<wgt id='8004'>0.79438E+02</wgt>
<wgt id='8005'>0.79286E+02</wgt>
<wgt id='8006'>0.79504E+02</wgt>
<wgt id='8007'>0.79565E+02</wgt>
<wgt id='8008'>0.79617E+02</wgt>
<wgt id='8009'>0.79774E+02</wgt>
<wgt id='8010'>0.79362E+02</wgt>
<wgt id='8011'>0.79447E+02</wgt>
<wgt id='8012'>0.79166E+02</wgt>
<wgt id='8013'>0.79297E+02</wgt>
<wgt id='8014'>0.79599E+02</wgt>
<wgt id='8015'>0.79393E+02</wgt>
<wgt id='8016'>0.79507E+02</wgt>
<wgt id='8017'>0.79474E+02</wgt>
<wgt id='8018'>0.79607E+02</wgt>
<wgt id='8019'>0.79522E+02</wgt>
<wgt id='8020'>0.79340E+02</wgt>
<wgt id='8021'>0.79388E+02</wgt>
<wgt id='8022'>0.79251E+02</wgt>
<wgt id='8023'>0.79397E+02</wgt>
<wgt id='8024'>0.79282E+02</wgt>
<wgt id='8025'>0.79477E+02</wgt>
<wgt id='8026'>0.79563E+02</wgt>
<wgt id='8027'>0.79455E+02</wgt>
<wgt id='8028'>0.79502E+02</wgt>
<wgt id='8029'>0.79210E+02</wgt>
<wgt id='3000'>0.81104E+02</wgt>
<wgt id='3001'>0.80762E+02</wgt>
<wgt id='3002'>0.79964E+02</wgt>
<wgt id='3003'>0.81577E+02</wgt>
<wgt id='3004'>0.81888E+02</wgt>
<wgt id='3005'>0.81069E+02</wgt>
<wgt id='3006'>0.83645E+02</wgt>
<wgt id='3007'>0.80683E+02</wgt>
<wgt id='3008'>0.80314E+02</wgt>
<wgt id='3009'>0.81757E+02</wgt>
<wgt id='3010'>0.82774E+02</wgt>
<wgt id='3011'>0.82243E+02</wgt>
<wgt id='3012'>0.81375E+02</wgt>
<wgt id='3013'>0.80459E+02</wgt>
<wgt id='3014'>0.80419E+02</wgt>
<wgt id='3015'>0.81152E+02</wgt>
<wgt id='3016'>0.82125E+02</wgt>
<wgt id='3017'>0.82735E+02</wgt>
<wgt id='3018'>0.80826E+02</wgt>
<wgt id='3019'>0.79642E+02</wgt>
<wgt id='3020'>0.80733E+02</wgt>
<wgt id='3021'>0.79564E+02</wgt>
<wgt id='3022'>0.79364E+02</wgt>
<wgt id='3023'>0.79665E+02</wgt>
<wgt id='3024'>0.80058E+02</wgt>
<wgt id='3025'>0.79885E+02</wgt>
<wgt id='3026'>0.80753E+02</wgt>
<wgt id='3027'>0.79776E+02</wgt>
<wgt id='3028'>0.80693E+02</wgt>
<wgt id='3029'>0.82394E+02</wgt>
<wgt id='3030'>0.82622E+02</wgt>
<wgt id='3031'>0.81641E+02</wgt>
<wgt id='3032'>0.82373E+02</wgt>
<wgt id='3033'>0.80293E+02</wgt>
<wgt id='3034'>0.81204E+02</wgt>
<wgt id='3035'>0.82199E+02</wgt>
<wgt id='3036'>0.81320E+02</wgt>
<wgt id='3037'>0.80749E+02</wgt>
<wgt id='3038'>0.80706E+02</wgt>
<wgt id='3039'>0.81334E+02</wgt>
<wgt id='3040'>0.81055E+02</wgt>
<wgt id='3041'>0.81555E+02</wgt>
<wgt id='3042'>0.80675E+02</wgt>
<wgt id='3043'>0.81151E+02</wgt>
<wgt id='3044'>0.80851E+02</wgt>
<wgt id='3045'>0.81320E+02</wgt>
<wgt id='3046'>0.81732E+02</wgt>
<wgt id='3047'>0.79192E+02</wgt>
<wgt id='3048'>0.79688E+02</wgt>
<wgt id='3049'>0.81403E+02</wgt>
<wgt id='3050'>0.82371E+02</wgt>
<wgt id='3051'>0.81181E+02</wgt>
<wgt id='3052'>0.80243E+02</wgt>
<wgt id='3053'>0.80738E+02</wgt>
<wgt id='3054'>0.80815E+02</wgt>
<wgt id='3055'>0.79811E+02</wgt>
<wgt id='3056'>0.80770E+02</wgt>
<wgt id='3057'>0.80504E+02</wgt>
<wgt id='3058'>0.79839E+02</wgt>
<wgt id='3059'>0.82772E+02</wgt>
<wgt id='3060'>0.81350E+02</wgt>
<wgt id='3061'>0.80880E+02</wgt>
<wgt id='3062'>0.80799E+02</wgt>
<wgt id='3063'>0.79527E+02</wgt>
<wgt id='3064'>0.80856E+02</wgt>
<wgt id='3065'>0.80490E+02</wgt>
<wgt id='3066'>0.81506E+02</wgt>
<wgt id='3067'>0.79494E+02</wgt>
<wgt id='3068'>0.81795E+02</wgt>
<wgt id='3069'>0.80839E+02</wgt>
<wgt id='3070'>0.79852E+02</wgt>
<wgt id='3071'>0.82293E+02</wgt>
<wgt id='3072'>0.80810E+02</wgt>
<wgt id='3073'>0.82078E+02</wgt>
<wgt id='3074'>0.82048E+02</wgt>
<wgt id='3075'>0.82451E+02</wgt>
<wgt id='3076'>0.82735E+02</wgt>
<wgt id='3077'>0.80417E+02</wgt>
<wgt id='3078'>0.81456E+02</wgt>
<wgt id='3079'>0.81101E+02</wgt>
<wgt id='3080'>0.81241E+02</wgt>
<wgt id='3081'>0.79641E+02</wgt>
<wgt id='3082'>0.82125E+02</wgt>
<wgt id='3083'>0.81240E+02</wgt>
<wgt id='3084'>0.81139E+02</wgt>
<wgt id='3085'>0.81244E+02</wgt>
<wgt id='3086'>0.79780E+02</wgt>
<wgt id='3087'>0.81733E+02</wgt>
<wgt id='3088'>0.82463E+02</wgt>
<wgt id='3089'>0.84086E+02</wgt>
<wgt id='3090'>0.81234E+02</wgt>
<wgt id='3091'>0.80526E+02</wgt>
<wgt id='3092'>0.82546E+02</wgt>
<wgt id='3093'>0.81838E+02</wgt>
<wgt id='3094'>0.81114E+02</wgt>
<wgt id='3095'>0.81197E+02</wgt>
<wgt id='3096'>0.80270E+02</wgt>
<wgt id='3097'>0.80520E+02</wgt>
<wgt id='3098'>0.82051E+02</wgt>
<wgt id='3099'>0.80389E+02</wgt>
<wgt id='3100'>0.80791E+02</wgt>
<wgt id='3200'>0.78734E+02</wgt>
<wgt id='3201'>0.79166E+02</wgt>
<wgt id='3202'>0.77778E+02</wgt>
<wgt id='3203'>0.78743E+02</wgt>
<wgt id='3204'>0.78066E+02</wgt>
<wgt id='3205'>0.79240E+02</wgt>
<wgt id='3206'>0.79235E+02</wgt>
<wgt id='3207'>0.79498E+02</wgt>
<wgt id='3208'>0.79271E+02</wgt>
<wgt id='3209'>0.78535E+02</wgt>
<wgt id='3210'>0.78682E+02</wgt>
<wgt id='3211'>0.79571E+02</wgt>
<wgt id='3212'>0.77972E+02</wgt>
<wgt id='3213'>0.78383E+02</wgt>
<wgt id='3214'>0.77985E+02</wgt>
<wgt id='3215'>0.78767E+02</wgt>
<wgt id='3216'>0.79356E+02</wgt>
<wgt id='3217'>0.79136E+02</wgt>
<wgt id='3218'>0.78887E+02</wgt>
<wgt id='3219'>0.78785E+02</wgt>
<wgt id='3220'>0.78082E+02</wgt>
<wgt id='3221'>0.79431E+02</wgt>
<wgt id='3222'>0.79620E+02</wgt>
<wgt id='3223'>0.78748E+02</wgt>
<wgt id='3224'>0.78463E+02</wgt>
<wgt id='3225'>0.79372E+02</wgt>
<wgt id='3226'>0.78752E+02</wgt>
<wgt id='3227'>0.78030E+02</wgt>
<wgt id='3228'>0.78071E+02</wgt>
<wgt id='3229'>0.79204E+02</wgt>
<wgt id='3230'>0.79271E+02</wgt>
<wgt id='3231'>0.78942E+02</wgt>
<wgt id='3232'>0.79108E+02</wgt>
<wgt id='3233'>0.79090E+02</wgt>
<wgt id='3234'>0.78725E+02</wgt>
<wgt id='3235'>0.78279E+02</wgt>
<wgt id='3236'>0.77967E+02</wgt>
<wgt id='3237'>0.78530E+02</wgt>
<wgt id='3238'>0.78485E+02</wgt>
<wgt id='3239'>0.78445E+02</wgt>
<wgt id='3240'>0.78596E+02</wgt>
<wgt id='3241'>0.79455E+02</wgt>
<wgt id='3242'>0.78031E+02</wgt>
<wgt id='3243'>0.77946E+02</wgt>
<wgt id='3244'>0.78450E+02</wgt>
<wgt id='3245'>0.79149E+02</wgt>
<wgt id='3246'>0.78000E+02</wgt>
<wgt id='3247'>0.78653E+02</wgt>
<wgt id='3248'>0.78352E+02</wgt>
<wgt id='3249'>0.78382E+02</wgt>
<wgt id='3250'>0.79217E+02</wgt>
<wgt id='3251'>0.78639E+02</wgt>
<wgt id='3252'>0.78855E+02</wgt>
<wgt id='3253'>0.78686E+02</wgt>
<wgt id='3254'>0.78683E+02</wgt>
<wgt id='3255'>0.78611E+02</wgt>
<wgt id='3256'>0.78246E+02</wgt>
<wgt id='3257'>0.78629E+02</wgt>
<wgt id='3258'>0.79037E+02</wgt>
<wgt id='3259'>0.78714E+02</wgt>
<wgt id='3260'>0.78721E+02</wgt>
<wgt id='3261'>0.79053E+02</wgt>
<wgt id='3262'>0.78399E+02</wgt>
<wgt id='3263'>0.79229E+02</wgt>
<wgt id='3264'>0.78973E+02</wgt>
<wgt id='3265'>0.79105E+02</wgt>
<wgt id='3266'>0.78530E+02</wgt>
<wgt id='3267'>0.78579E+02</wgt>
<wgt id='3268'>0.79392E+02</wgt>
<wgt id='3269'>0.78890E+02</wgt>
<wgt id='3270'>0.79063E+02</wgt>
<wgt id='3271'>0.78951E+02</wgt>
<wgt id='3272'>0.79184E+02</wgt>
<wgt id='3273'>0.78690E+02</wgt>
<wgt id='3274'>0.78875E+02</wgt>
<wgt id='3275'>0.78945E+02</wgt>
<wgt id='3276'>0.78454E+02</wgt>
<wgt id='3277'>0.78326E+02</wgt>
<wgt id='3278'>0.78632E+02</wgt>
<wgt id='3279'>0.79305E+02</wgt>
<wgt id='3280'>0.78485E+02</wgt>
<wgt id='3281'>0.78887E+02</wgt>
<wgt id='3282'>0.79015E+02</wgt>
<wgt id='3283'>0.78930E+02</wgt>
<wgt id='3284'>0.78759E+02</wgt>
<wgt id='3285'>0.78118E+02</wgt>
<wgt id='3286'>0.78534E+02</wgt>
<wgt id='3287'>0.78391E+02</wgt>
<wgt id='3288'>0.79170E+02</wgt>
<wgt id='3289'>0.79973E+02</wgt>
<wgt id='3290'>0.79580E+02</wgt>
<wgt id='3291'>0.77471E+02</wgt>
<wgt id='3292'>0.77961E+02</wgt>
<wgt id='3293'>0.78467E+02</wgt>
<wgt id='3294'>0.77542E+02</wgt>
<wgt id='3295'>0.78257E+02</wgt>
<wgt id='3296'>0.79836E+02</wgt>
<wgt id='3297'>0.78575E+02</wgt>
<wgt id='3298'>0.78651E+02</wgt>
<wgt id='3299'>0.78354E+02</wgt>
<wgt id='3300'>0.79137E+02</wgt>
<wgt id='3301'>0.77257E+02</wgt>
<wgt id='3302'>0.80095E+02</wgt>
<wgt id='3400'>0.78650E+02</wgt>
<wgt id='3401'>0.78634E+02</wgt>
<wgt id='3402'>0.78057E+02</wgt>
<wgt id='3403'>0.79563E+02</wgt>
<wgt id='3404'>0.79957E+02</wgt>
<wgt id='3405'>0.79327E+02</wgt>
<wgt id='3406'>0.78903E+02</wgt>
<wgt id='3407'>0.78216E+02</wgt>
<wgt id='3408'>0.80116E+02</wgt>
<wgt id='3409'>0.79653E+02</wgt>
<wgt id='3410'>0.78667E+02</wgt>
<wgt id='3411'>0.79338E+02</wgt>
<wgt id='3412'>0.79416E+02</wgt>
<wgt id='3413'>0.78561E+02</wgt>
<wgt id='3414'>0.78328E+02</wgt>
<wgt id='3415'>0.78567E+02</wgt>
<wgt id='3416'>0.78089E+02</wgt>
<wgt id='3417'>0.78879E+02</wgt>
<wgt id='3418'>0.78060E+02</wgt>
<wgt id='3419'>0.78188E+02</wgt>
<wgt id='3420'>0.78900E+02</wgt>
<wgt id='3421'>0.78852E+02</wgt>
<wgt id='3422'>0.79302E+02</wgt>
<wgt id='3423'>0.79197E+02</wgt>
<wgt id='3424'>0.79063E+02</wgt>
<wgt id='3425'>0.78425E+02</wgt>
<wgt id='3426'>0.78874E+02</wgt>
<wgt id='3427'>0.78614E+02</wgt>
<wgt id='3428'>0.79617E+02</wgt>
<wgt id='3429'>0.78007E+02</wgt>
<wgt id='3430'>0.79090E+02</wgt>
<wgt id='3431'>0.78757E+02</wgt>
<wgt id='3432'>0.78683E+02</wgt>
<wgt id='3433'>0.77406E+02</wgt>
<wgt id='3434'>0.78692E+02</wgt>
<wgt id='3435'>0.78791E+02</wgt>
<wgt id='3436'>0.78665E+02</wgt>
<wgt id='3437'>0.78762E+02</wgt>
<wgt id='3438'>0.77905E+02</wgt>
<wgt id='3439'>0.79039E+02</wgt>
<wgt id='3440'>0.78714E+02</wgt>
<wgt id='3441'>0.78514E+02</wgt>
<wgt id='3442'>0.77171E+02</wgt>
<wgt id='3443'>0.78541E+02</wgt>
<wgt id='3444'>0.78397E+02</wgt>
<wgt id='3445'>0.78315E+02</wgt>
<wgt id='3446'>0.79108E+02</wgt>
<wgt id='3447'>0.79860E+02</wgt>
<wgt id='3448'>0.79382E+02</wgt>
<wgt id='3449'>0.79293E+02</wgt>
<wgt id='3450'>0.78586E+02</wgt>
<wgt id='3451'>0.79677E+02</wgt>
<wgt id='3452'>0.78298E+02</wgt>
<wgt id='3453'>0.77976E+02</wgt>
<wgt id='3454'>0.77856E+02</wgt>
<wgt id='3455'>0.79546E+02</wgt>
<wgt id='3456'>0.78977E+02</wgt>
<wgt id='3457'>0.79513E+02</wgt>
<wgt id='3458'>0.78743E+02</wgt>
<wgt id='3459'>0.78433E+02</wgt>
<wgt id='3460'>0.78400E+02</wgt>
<wgt id='3461'>0.77993E+02</wgt>
<wgt id='3462'>0.78203E+02</wgt>
<wgt id='3463'>0.77776E+02</wgt>
<wgt id='3464'>0.79167E+02</wgt>
<wgt id='3465'>0.78530E+02</wgt>
<wgt id='3466'>0.78949E+02</wgt>
<wgt id='3467'>0.78413E+02</wgt>
<wgt id='3468'>0.77702E+02</wgt>
<wgt id='3469'>0.78673E+02</wgt>
<wgt id='3470'>0.78663E+02</wgt>
<wgt id='3471'>0.78550E+02</wgt>
<wgt id='3472'>0.78031E+02</wgt>
<wgt id='3473'>0.79031E+02</wgt>
<wgt id='3474'>0.78505E+02</wgt>
<wgt id='3475'>0.78560E+02</wgt>
<wgt id='3476'>0.78830E+02</wgt>
<wgt id='3477'>0.77945E+02</wgt>
<wgt id='3478'>0.79083E+02</wgt>
<wgt id='3479'>0.79464E+02</wgt>
<wgt id='3480'>0.78231E+02</wgt>
<wgt id='3481'>0.78912E+02</wgt>
<wgt id='3482'>0.78378E+02</wgt>
<wgt id='3483'>0.77441E+02</wgt>
<wgt id='3484'>0.78393E+02</wgt>
<wgt id='3485'>0.78381E+02</wgt>
<wgt id='3486'>0.77286E+02</wgt>
<wgt id='3487'>0.78880E+02</wgt>
<wgt id='3488'>0.79440E+02</wgt>
<wgt id='3489'>0.77854E+02</wgt>
<wgt id='3490'>0.78972E+02</wgt>
<wgt id='3491'>0.78836E+02</wgt>
<wgt id='3492'>0.78928E+02</wgt>
<wgt id='3493'>0.78249E+02</wgt>
<wgt id='3494'>0.76855E+02</wgt>
<wgt id='3495'>0.78757E+02</wgt>
<wgt id='3496'>0.77632E+02</wgt>
<wgt id='3497'>0.78077E+02</wgt>
<wgt id='3498'>0.79025E+02</wgt>
<wgt id='3499'>0.78625E+02</wgt>
<wgt id='3500'>0.79347E+02</wgt>
</rwgt>
</event>
<event>
     13 322200  8.11039E+01  3.83498E+01 -1.00000E+00  1.43767E-01
      21    -1     0     0   503   504  0.000000000E+00  0.000000000E+00  3.854566582E+02  3.854566582E+02  0.000000000E+00  0.00000E+00  9.000E+00
      21    -1     0     0   504   505  0.000000000E+00  0.000000000E+00 -3.614258850E+02  3.614258850E+02  0.000000000E+00  0.00000E+00  9.000E+00
       6     2     1     2   502     0 -5.573045820E+01  2.370497662E+01  2.011003443E+02  2.759577373E+02  1.790070234E+02  0.00000E+00  9.000E+00
      -6     2     1     2     0   505  9.195062712E+01 -1.110316153E+01 -2.910931184E+02  3.506248652E+02  1.721173858E+02  0.00000E+00  9.000E+00
      21     1     1     2   503   502 -3.622016893E+01 -1.260181508E+01  1.140235473E+02  1.202999406E+02  2.336015456E-06  0.00000E+00  9.000E+00
      24     2     3     3     0     0 -2.543924804E+01  1.166009479E+01  2.210034742E+02  2.374301528E+02  8.214273391E+01  0.00000E+00  9.000E+00
       5     1     3     3   502     0 -3.029121016E+01  1.204488182E+01 -1.990312981E+01  3.852758450E+01  5.060000000E+00  0.00000E+00 -1.000E+00
     -24     2     4     4     0     0  7.004802466E+01 -5.314717339E+01 -1.065121531E+02  1.599860463E+02  8.074248228E+01  0.00000E+00  9.000E+00
      -5     1     4     4     0   505  2.190260246E+01  4.204401186E+01 -1.845809654E+02  1.906388190E+02  5.060000000E+00  0.00000E+00  1.000E+00
     -11     1     6     6     0     0 -3.435517872E+01  3.862671931E+01  9.387174408E+01  1.071643881E+02  5.100000000E-04  0.00000E+00  1.000E+00
      12     1     6     6     0     0  8.915930678E+00 -2.696662452E+01  1.271317301E+02  1.302657647E+02  0.000000000E+00  0.00000E+00 -1.000E+00
      13     1     8     8     0     0  4.339896791E+01  9.172666835E+00 -1.654065104E+01  4.734144634E+01  1.057000000E-01  0.00000E+00 -1.000E+00
     -14     1     8     8     0     0  2.664905676E+01 -6.231984023E+01 -8.997150204E+01  1.126445999E+02  0.000000000E+00  0.00000E+00  1.000E+00
#rwgt            1           1   1092.5613984778338               10        4305           0
<rwgt>
<wgt id='1001'>0.81104E+02</wgt>
<wgt id='1002'>0.76104E+02</wgt>
<wgt id='1003'>0.86541E+02</wgt>
<wgt id='1004'>0.69119E+02</wgt>
<wgt id='1005'>0.64775E+02</wgt>
<wgt id='1006'>0.73843E+02</wgt>
<wgt id='1007'>0.96555E+02</wgt>
<wgt id='1008'>0.90746E+02</wgt>
<wgt id='1009'>0.10287E+03</wgt>
<wgt id='2000'>0.81104E+02</wgt>
<wgt id='2001'>0.81232E+02</wgt>
<wgt id='2002'>0.80887E+02</wgt>
<wgt id='2003'>0.80997E+02</wgt>
<wgt id='2004'>0.81265E+02</wgt>
<wgt id='2005'>0.81196E+02</wgt>
<wgt id='2006'>0.81300E+02</wgt>
<wgt id='2007'>0.81213E+02</wgt>
<wgt id='2008'>0.81467E+02</wgt>
<wgt id='2009'>0.81004E+02</wgt>
<wgt id='2010'>0.81106E+02</wgt>
<wgt id='2011'>0.80836E+02</wgt>
<wgt id='2012'>0.81239E+02</wgt>
<wgt id='2013'>0.81309E+02</wgt>
<wgt id='2014'>0.81463E+02</wgt>
<wgt id='2015'>0.81316E+02</wgt>
<wgt id='2016'>0.81171E+02</wgt>
<wgt id='2017'>0.81164E+02</wgt>
<wgt id='2018'>0.80827E+02</wgt>
<wgt id='2019'>0.81498E+02</wgt>
<wgt id='2020'>0.80858E+02</wgt>
<wgt id='2021'>0.80967E+02</wgt>
<wgt id='2022'>0.80859E+02</wgt>
<wgt id='2023'>0.81008E+02</wgt>
<wgt id='2024'>0.81093E+02</wgt>
<wgt id='2025'>0.81120E+02</wgt>
<wgt id='2026'>0.80992E+02</wgt>
<wgt id='2027'>0.80769E+02</wgt>
<wgt id='2028'>0.81253E+02</wgt>
<wgt id='2029'>0.80771E+02</wgt>
<wgt id='2030'>0.81054E+02</wgt>
<wgt id='2031'>0.80816E+02</wgt>
<wgt id='2032'>0.81115E+02</wgt>
<wgt id='2033'>0.81001E+02</wgt>
<wgt id='2034'>0.80969E+02</wgt>
<wgt id='2035'>0.81118E+02</wgt>
<wgt id='2036'>0.81279E+02</wgt>
<wgt id='2037'>0.81086E+02</wgt>
<wgt id='2038'>0.81059E+02</wgt>
<wgt id='2039'>0.81108E+02</wgt>
<wgt id='2040'>0.81058E+02</wgt>
<wgt id='2041'>0.81105E+02</wgt>
<wgt id='2042'>0.81144E+02</wgt>
<wgt id='2043'>0.81044E+02</wgt>
<wgt id='2044'>0.81177E+02</wgt>
<wgt id='2045'>0.81115E+02</wgt>
<wgt id='2046'>0.81124E+02</wgt>
<wgt id='2047'>0.81084E+02</wgt>
<wgt id='2048'>0.81068E+02</wgt>
<wgt id='2049'>0.81041E+02</wgt>
<wgt id='2050'>0.81073E+02</wgt>
<wgt id='2051'>0.81104E+02</wgt>
<wgt id='2052'>0.81175E+02</wgt>
<wgt id='2053'>0.81091E+02</wgt>
<wgt id='2054'>0.81099E+02</wgt>
<wgt id='2055'>0.81121E+02</wgt>
<wgt id='2056'>0.81066E+02</wgt>
<wgt id='2057'>0.81134E+02</wgt>
<wgt id='2058'>0.81120E+02</wgt>
<wgt id='2059'>0.81118E+02</wgt>
<wgt id='2060'>0.81107E+02</wgt>
<wgt id='2061'>0.81085E+02</wgt>
<wgt id='2062'>0.81171E+02</wgt>
<wgt id='2063'>0.81125E+02</wgt>
<wgt id='2064'>0.81118E+02</wgt>
<wgt id='2065'>0.81180E+02</wgt>
<wgt id='2066'>0.81105E+02</wgt>
<wgt id='2067'>0.81127E+02</wgt>
<wgt id='2068'>0.81120E+02</wgt>
<wgt id='2069'>0.81106E+02</wgt>
<wgt id='2070'>0.81114E+02</wgt>
<wgt id='2071'>0.81106E+02</wgt>
<wgt id='2072'>0.81108E+02</wgt>
<wgt id='2073'>0.81124E+02</wgt>
<wgt id='2074'>0.81083E+02</wgt>
<wgt id='2075'>0.81091E+02</wgt>
<wgt id='2076'>0.81090E+02</wgt>
<wgt id='2077'>0.81149E+02</wgt>
<wgt id='2078'>0.81114E+02</wgt>
<wgt id='2079'>0.81085E+02</wgt>
<wgt id='2080'>0.81110E+02</wgt>
<wgt id='2081'>0.81092E+02</wgt>
<wgt id='2082'>0.81112E+02</wgt>
<wgt id='2083'>0.81135E+02</wgt>
<wgt id='2084'>0.81109E+02</wgt>
<wgt id='2085'>0.81103E+02</wgt>
<wgt id='2086'>0.81093E+02</wgt>
<wgt id='2087'>0.81112E+02</wgt>
<wgt id='2088'>0.81096E+02</wgt>
<wgt id='2089'>0.81095E+02</wgt>
<wgt id='2090'>0.81120E+02</wgt>
<wgt id='2091'>0.81103E+02</wgt>
<wgt id='2092'>0.81121E+02</wgt>
<wgt id='2093'>0.81088E+02</wgt>
<wgt id='2094'>0.81108E+02</wgt>
<wgt id='2095'>0.81116E+02</wgt>
<wgt id='2096'>0.81093E+02</wgt>
<wgt id='2097'>0.81113E+02</wgt>
<wgt id='2098'>0.81100E+02</wgt>
<wgt id='2099'>0.81116E+02</wgt>
<wgt id='2100'>0.81104E+02</wgt>
<wgt id='2101'>0.78684E+02</wgt>
<wgt id='2102'>0.83548E+02</wgt>
<wgt id='2200'>0.81192E+02</wgt>
<wgt id='2201'>0.70143E+02</wgt>
<wgt id='2202'>0.72216E+02</wgt>
<wgt id='2203'>0.74717E+02</wgt>
<wgt id='2204'>0.76940E+02</wgt>
<wgt id='2205'>0.80139E+02</wgt>
<wgt id='2206'>0.82481E+02</wgt>
<wgt id='2207'>0.85419E+02</wgt>
<wgt id='2208'>0.87742E+02</wgt>
<wgt id='2300'>0.84781E+02</wgt>
<wgt id='2301'>0.84840E+02</wgt>
<wgt id='2302'>0.84781E+02</wgt>
<wgt id='2303'>0.84827E+02</wgt>
<wgt id='2304'>0.84948E+02</wgt>
<wgt id='2305'>0.84959E+02</wgt>
<wgt id='2306'>0.84744E+02</wgt>
<wgt id='2307'>0.85024E+02</wgt>
<wgt id='2308'>0.84746E+02</wgt>
<wgt id='2309'>0.85048E+02</wgt>
<wgt id='2310'>0.84664E+02</wgt>
<wgt id='2311'>0.84612E+02</wgt>
<wgt id='2312'>0.84887E+02</wgt>
<wgt id='2313'>0.84879E+02</wgt>
<wgt id='2314'>0.84912E+02</wgt>
<wgt id='2315'>0.84598E+02</wgt>
<wgt id='2316'>0.84827E+02</wgt>
<wgt id='2317'>0.84893E+02</wgt>
<wgt id='2318'>0.85028E+02</wgt>
<wgt id='2319'>0.84579E+02</wgt>
<wgt id='2320'>0.84496E+02</wgt>
<wgt id='2321'>0.84445E+02</wgt>
<wgt id='2322'>0.84763E+02</wgt>
<wgt id='2323'>0.84549E+02</wgt>
<wgt id='2324'>0.84401E+02</wgt>
<wgt id='2325'>0.84811E+02</wgt>
<wgt id='2326'>0.85032E+02</wgt>
<wgt id='2327'>0.84801E+02</wgt>
<wgt id='2328'>0.84327E+02</wgt>
<wgt id='2329'>0.84570E+02</wgt>
<wgt id='2330'>0.85044E+02</wgt>
<wgt id='2331'>0.84910E+02</wgt>
<wgt id='2332'>0.84957E+02</wgt>
<wgt id='2333'>0.85003E+02</wgt>
<wgt id='2334'>0.84868E+02</wgt>
<wgt id='2335'>0.84968E+02</wgt>
<wgt id='2336'>0.84828E+02</wgt>
<wgt id='2337'>0.84788E+02</wgt>
<wgt id='2338'>0.84794E+02</wgt>
<wgt id='2339'>0.84690E+02</wgt>
<wgt id='2340'>0.84812E+02</wgt>
<wgt id='2341'>0.84853E+02</wgt>
<wgt id='2342'>0.84650E+02</wgt>
<wgt id='2343'>0.84663E+02</wgt>
<wgt id='2344'>0.84798E+02</wgt>
<wgt id='2345'>0.84865E+02</wgt>
<wgt id='2346'>0.84856E+02</wgt>
<wgt id='2347'>0.84758E+02</wgt>
<wgt id='2348'>0.84859E+02</wgt>
<wgt id='2349'>0.84762E+02</wgt>
<wgt id='2350'>0.84779E+02</wgt>
<wgt id='2351'>0.84904E+02</wgt>
<wgt id='2352'>0.84742E+02</wgt>
<wgt id='2353'>0.84746E+02</wgt>
<wgt id='2354'>0.84763E+02</wgt>
<wgt id='2355'>0.84743E+02</wgt>
<wgt id='2356'>0.84795E+02</wgt>
<wgt id='2357'>0.84729E+02</wgt>
<wgt id='2358'>0.84744E+02</wgt>
<wgt id='2359'>0.84775E+02</wgt>
<wgt id='2360'>0.84798E+02</wgt>
<wgt id='2361'>0.84792E+02</wgt>
<wgt id='2362'>0.84784E+02</wgt>
<wgt id='2363'>0.84815E+02</wgt>
<wgt id='2364'>0.84764E+02</wgt>
<wgt id='2365'>0.84793E+02</wgt>
<wgt id='2366'>0.84794E+02</wgt>
<wgt id='2367'>0.84749E+02</wgt>
<wgt id='2368'>0.84783E+02</wgt>
<wgt id='2369'>0.84749E+02</wgt>
<wgt id='2370'>0.84774E+02</wgt>
<wgt id='2371'>0.84782E+02</wgt>
<wgt id='2372'>0.84792E+02</wgt>
<wgt id='2373'>0.84768E+02</wgt>
<wgt id='2374'>0.84820E+02</wgt>
<wgt id='2375'>0.84789E+02</wgt>
<wgt id='2376'>0.84783E+02</wgt>
<wgt id='2377'>0.84784E+02</wgt>
<wgt id='2378'>0.84803E+02</wgt>
<wgt id='2379'>0.84763E+02</wgt>
<wgt id='2380'>0.84766E+02</wgt>
<wgt id='2381'>0.84775E+02</wgt>
<wgt id='2382'>0.84763E+02</wgt>
<wgt id='2383'>0.84787E+02</wgt>
<wgt id='2384'>0.84774E+02</wgt>
<wgt id='2385'>0.84792E+02</wgt>
<wgt id='2386'>0.84780E+02</wgt>
<wgt id='2387'>0.84774E+02</wgt>
<wgt id='2388'>0.84773E+02</wgt>
<wgt id='2389'>0.84782E+02</wgt>
<wgt id='2390'>0.84785E+02</wgt>
<wgt id='2391'>0.84779E+02</wgt>
<wgt id='2392'>0.84775E+02</wgt>
<wgt id='2393'>0.84784E+02</wgt>
<wgt id='2394'>0.84795E+02</wgt>
<wgt id='2395'>0.84784E+02</wgt>
<wgt id='2396'>0.84769E+02</wgt>
<wgt id='2397'>0.84765E+02</wgt>
<wgt id='2398'>0.84772E+02</wgt>
<wgt id='2399'>0.84792E+02</wgt>
<wgt id='2400'>0.84787E+02</wgt>
<wgt id='2401'>0.82299E+02</wgt>
<wgt id='2402'>0.87264E+02</wgt>
<wgt id='2500'>0.81155E+02</wgt>
<wgt id='2501'>0.86216E+02</wgt>
<wgt id='2600'>0.77981E+02</wgt>
<wgt id='2601'>0.78020E+02</wgt>
<wgt id='2602'>0.77872E+02</wgt>
<wgt id='2603'>0.77937E+02</wgt>
<wgt id='2604'>0.77998E+02</wgt>
<wgt id='2605'>0.77856E+02</wgt>
<wgt id='2606'>0.77787E+02</wgt>
<wgt id='2607'>0.78094E+02</wgt>
<wgt id='2608'>0.77887E+02</wgt>
<wgt id='2609'>0.77889E+02</wgt>
<wgt id='2610'>0.77933E+02</wgt>
<wgt id='2611'>0.77889E+02</wgt>
<wgt id='2612'>0.78358E+02</wgt>
<wgt id='2613'>0.77931E+02</wgt>
<wgt id='2614'>0.77961E+02</wgt>
<wgt id='2615'>0.77817E+02</wgt>
<wgt id='2616'>0.77934E+02</wgt>
<wgt id='2617'>0.77826E+02</wgt>
<wgt id='2618'>0.77732E+02</wgt>
<wgt id='2619'>0.78033E+02</wgt>
<wgt id='2620'>0.78020E+02</wgt>
<wgt id='2621'>0.77935E+02</wgt>
<wgt id='2622'>0.78043E+02</wgt>
<wgt id='2623'>0.77976E+02</wgt>
<wgt id='2624'>0.78000E+02</wgt>
<wgt id='2625'>0.77902E+02</wgt>
<wgt id='2626'>0.77964E+02</wgt>
<wgt id='2627'>0.77929E+02</wgt>
<wgt id='2628'>0.78003E+02</wgt>
<wgt id='2629'>0.77975E+02</wgt>
<wgt id='2630'>0.77953E+02</wgt>
<wgt id='2631'>0.77999E+02</wgt>
<wgt id='2632'>0.77983E+02</wgt>
<wgt id='2633'>0.77989E+02</wgt>
<wgt id='2634'>0.78006E+02</wgt>
<wgt id='2635'>0.77972E+02</wgt>
<wgt id='2636'>0.77974E+02</wgt>
<wgt id='2637'>0.77972E+02</wgt>
<wgt id='2638'>0.77977E+02</wgt>
<wgt id='2639'>0.77978E+02</wgt>
<wgt id='2640'>0.77985E+02</wgt>
<wgt id='2641'>0.77976E+02</wgt>
<wgt id='2642'>0.77977E+02</wgt>
<wgt id='2643'>0.77989E+02</wgt>
<wgt id='2644'>0.77980E+02</wgt>
<wgt id='2645'>0.77977E+02</wgt>
<wgt id='2646'>0.77958E+02</wgt>
<wgt id='2647'>0.77987E+02</wgt>
<wgt id='2648'>0.77985E+02</wgt>
<wgt id='2649'>0.77986E+02</wgt>
<wgt id='2650'>0.77981E+02</wgt>
<wgt id='2651'>0.76511E+02</wgt>
<wgt id='2652'>0.79372E+02</wgt>
<wgt id='2700'>0.75064E+02</wgt>
<wgt id='2701'>0.76511E+02</wgt>
<wgt id='2702'>0.77296E+02</wgt>
<wgt id='2703'>0.78570E+02</wgt>
<wgt id='2704'>0.79372E+02</wgt>
<wgt id='2705'>0.80665E+02</wgt>
<wgt id='2800'>0.79247E+02</wgt>
<wgt id='4000'>0.79479E+02</wgt>
<wgt id='4001'>0.79877E+02</wgt>
<wgt id='4002'>0.79376E+02</wgt>
<wgt id='4003'>0.80033E+02</wgt>
<wgt id='4004'>0.78860E+02</wgt>
<wgt id='4005'>0.79092E+02</wgt>
<wgt id='4006'>0.79845E+02</wgt>
<wgt id='4007'>0.80564E+02</wgt>
<wgt id='4008'>0.78419E+02</wgt>
<wgt id='4009'>0.80124E+02</wgt>
<wgt id='4010'>0.78948E+02</wgt>
<wgt id='4011'>0.79749E+02</wgt>
<wgt id='4012'>0.79229E+02</wgt>
<wgt id='4013'>0.80174E+02</wgt>
<wgt id='4014'>0.78863E+02</wgt>
<wgt id='4015'>0.79084E+02</wgt>
<wgt id='4016'>0.79743E+02</wgt>
<wgt id='4017'>0.79371E+02</wgt>
<wgt id='4018'>0.79636E+02</wgt>
<wgt id='4019'>0.80130E+02</wgt>
<wgt id='4020'>0.78492E+02</wgt>
<wgt id='4021'>0.79546E+02</wgt>
<wgt id='4022'>0.79338E+02</wgt>
<wgt id='4023'>0.79286E+02</wgt>
<wgt id='4024'>0.79679E+02</wgt>
<wgt id='4025'>0.79754E+02</wgt>
<wgt id='4026'>0.78801E+02</wgt>
<wgt id='4027'>0.79305E+02</wgt>
<wgt id='4028'>0.79695E+02</wgt>
<wgt id='4029'>0.78556E+02</wgt>
<wgt id='4030'>0.79633E+02</wgt>
<wgt id='4031'>0.79298E+02</wgt>
<wgt id='4032'>0.79369E+02</wgt>
<wgt id='4033'>0.79425E+02</wgt>
<wgt id='4034'>0.79273E+02</wgt>
<wgt id='4035'>0.80691E+02</wgt>
<wgt id='4036'>0.78561E+02</wgt>
<wgt id='4037'>0.80730E+02</wgt>
<wgt id='4038'>0.78465E+02</wgt>
<wgt id='4039'>0.80821E+02</wgt>
<wgt id='4040'>0.78092E+02</wgt>
<wgt id='4041'>0.79309E+02</wgt>
<wgt id='4042'>0.79529E+02</wgt>
<wgt id='4043'>0.78313E+02</wgt>
<wgt id='4044'>0.79904E+02</wgt>
<wgt id='4045'>0.81321E+02</wgt>
<wgt id='4046'>0.78630E+02</wgt>
<wgt id='4047'>0.78279E+02</wgt>
<wgt id='4048'>0.80007E+02</wgt>
<wgt id='4049'>0.79374E+02</wgt>
<wgt id='4050'>0.79565E+02</wgt>
<wgt id='4051'>0.80653E+02</wgt>
<wgt id='4052'>0.78385E+02</wgt>
<wgt id='4053'>0.80417E+02</wgt>
<wgt id='4054'>0.78204E+02</wgt>
<wgt id='4055'>0.79932E+02</wgt>
<wgt id='4056'>0.78987E+02</wgt>
<wgt id='4057'>0.78645E+02</wgt>
<wgt id='4058'>0.80018E+02</wgt>
<wgt id='4100'>0.80061E+02</wgt>
<wgt id='4101'>0.79796E+02</wgt>
<wgt id='4102'>0.79118E+02</wgt>
<wgt id='4103'>0.78723E+02</wgt>
<wgt id='4200'>0.75909E+02</wgt>
<wgt id='4201'>0.76064E+02</wgt>
<wgt id='4202'>0.76028E+02</wgt>
<wgt id='4203'>0.75199E+02</wgt>
<wgt id='4204'>0.76483E+02</wgt>
<wgt id='4205'>0.75835E+02</wgt>
<wgt id='4206'>0.76121E+02</wgt>
<wgt id='4207'>0.75714E+02</wgt>
<wgt id='4208'>0.76113E+02</wgt>
<wgt id='4209'>0.76147E+02</wgt>
<wgt id='4210'>0.75888E+02</wgt>
<wgt id='4211'>0.77016E+02</wgt>
<wgt id='4212'>0.75044E+02</wgt>
<wgt id='4213'>0.76099E+02</wgt>
<wgt id='4214'>0.75625E+02</wgt>
<wgt id='4215'>0.76046E+02</wgt>
<wgt id='4216'>0.75471E+02</wgt>
<wgt id='4217'>0.75497E+02</wgt>
<wgt id='4218'>0.76219E+02</wgt>
<wgt id='4219'>0.74680E+02</wgt>
<wgt id='4220'>0.77050E+02</wgt>
<wgt id='4221'>0.75266E+02</wgt>
<wgt id='4222'>0.76654E+02</wgt>
<wgt id='4223'>0.76537E+02</wgt>
<wgt id='4224'>0.75093E+02</wgt>
<wgt id='4225'>0.74356E+02</wgt>
<wgt id='4226'>0.77367E+02</wgt>
<wgt id='4227'>0.76538E+02</wgt>
<wgt id='4228'>0.75383E+02</wgt>
<wgt id='4229'>0.75213E+02</wgt>
<wgt id='4230'>0.76376E+02</wgt>
<wgt id='4231'>0.75933E+02</wgt>
<wgt id='4232'>0.75813E+02</wgt>
<wgt id='4233'>0.76222E+02</wgt>
<wgt id='4234'>0.75406E+02</wgt>
<wgt id='4235'>0.76300E+02</wgt>
<wgt id='4236'>0.75608E+02</wgt>
<wgt id='4237'>0.75907E+02</wgt>
<wgt id='4238'>0.75692E+02</wgt>
<wgt id='4239'>0.76669E+02</wgt>
<wgt id='4240'>0.74373E+02</wgt>
<wgt id='4241'>0.75490E+02</wgt>
<wgt id='4242'>0.76362E+02</wgt>
<wgt id='4243'>0.75837E+02</wgt>
<wgt id='4244'>0.76237E+02</wgt>
<wgt id='4245'>0.75032E+02</wgt>
<wgt id='4246'>0.76756E+02</wgt>
<wgt id='4247'>0.75630E+02</wgt>
<wgt id='4248'>0.76023E+02</wgt>
<wgt id='4249'>0.77171E+02</wgt>
<wgt id='4250'>0.74450E+02</wgt>
<wgt id='4251'>0.75093E+02</wgt>
<wgt id='4252'>0.76346E+02</wgt>
<wgt id='4253'>0.75546E+02</wgt>
<wgt id='4254'>0.76141E+02</wgt>
<wgt id='4255'>0.76144E+02</wgt>
<wgt id='4256'>0.75678E+02</wgt>
<wgt id='4257'>0.74459E+02</wgt>
<wgt id='4258'>0.76323E+02</wgt>
<wgt id='4300'>0.78689E+02</wgt>
<wgt id='4301'>0.77443E+02</wgt>
<wgt id='5000'>0.78681E+02</wgt>
<wgt id='5001'>0.78724E+02</wgt>
<wgt id='5002'>0.78625E+02</wgt>
<wgt id='5003'>0.78699E+02</wgt>
<wgt id='5004'>0.78663E+02</wgt>
<wgt id='5005'>0.78692E+02</wgt>
<wgt id='5006'>0.78662E+02</wgt>
<wgt id='5007'>0.78743E+02</wgt>
<wgt id='5008'>0.78630E+02</wgt>
<wgt id='5009'>0.78803E+02</wgt>
<wgt id='5010'>0.78554E+02</wgt>
<wgt id='5011'>0.78858E+02</wgt>
<wgt id='5012'>0.78510E+02</wgt>
<wgt id='5013'>0.78807E+02</wgt>
<wgt id='5014'>0.78591E+02</wgt>
<wgt id='5015'>0.78272E+02</wgt>
<wgt id='5016'>0.78272E+02</wgt>
<wgt id='5017'>0.79130E+02</wgt>
<wgt id='5018'>0.78377E+02</wgt>
<wgt id='5019'>0.78989E+02</wgt>
<wgt id='5020'>0.78258E+02</wgt>
<wgt id='5021'>0.78766E+02</wgt>
<wgt id='5022'>0.78548E+02</wgt>
<wgt id='5023'>0.78592E+02</wgt>
<wgt id='5024'>0.78891E+02</wgt>
<wgt id='5025'>0.78392E+02</wgt>
<wgt id='5026'>0.79004E+02</wgt>
<wgt id='5027'>0.78722E+02</wgt>
<wgt id='5028'>0.78569E+02</wgt>
<wgt id='5029'>0.79401E+02</wgt>
<wgt id='5030'>0.78273E+02</wgt>
<wgt id='5031'>0.78313E+02</wgt>
<wgt id='5032'>0.79797E+02</wgt>
<wgt id='5033'>0.78674E+02</wgt>
<wgt id='5034'>0.78688E+02</wgt>
<wgt id='5035'>0.78686E+02</wgt>
<wgt id='5036'>0.78676E+02</wgt>
<wgt id='5037'>0.78551E+02</wgt>
<wgt id='5038'>0.78754E+02</wgt>
<wgt id='5039'>0.78894E+02</wgt>
<wgt id='5040'>0.78152E+02</wgt>
<wgt id='5041'>0.78900E+02</wgt>
<wgt id='5042'>0.78455E+02</wgt>
<wgt id='5043'>0.78821E+02</wgt>
<wgt id='5044'>0.78598E+02</wgt>
<wgt id='5045'>0.78459E+02</wgt>
<wgt id='5046'>0.79106E+02</wgt>
<wgt id='5047'>0.78720E+02</wgt>
<wgt id='5048'>0.78505E+02</wgt>
<wgt id='5049'>0.78658E+02</wgt>
<wgt id='5050'>0.78740E+02</wgt>
<wgt id='5051'>0.78802E+02</wgt>
<wgt id='5052'>0.78574E+02</wgt>
<wgt id='5053'>0.78587E+02</wgt>
<wgt id='5054'>0.78822E+02</wgt>
<wgt id='5055'>0.78728E+02</wgt>
<wgt id='5056'>0.78712E+02</wgt>
<wgt id='5057'>0.78423E+02</wgt>
<wgt id='5058'>0.78861E+02</wgt>
<wgt id='5059'>0.78670E+02</wgt>
<wgt id='5060'>0.78697E+02</wgt>
<wgt id='5061'>0.78981E+02</wgt>
<wgt id='5062'>0.78686E+02</wgt>
<wgt id='5063'>0.79005E+02</wgt>
<wgt id='5064'>0.78599E+02</wgt>
<wgt id='5100'>0.78681E+02</wgt>
<wgt id='5101'>0.78701E+02</wgt>
<wgt id='6000'>0.79220E+02</wgt>
<wgt id='6001'>0.79425E+02</wgt>
<wgt id='6002'>0.79288E+02</wgt>
<wgt id='6003'>0.79200E+02</wgt>
<wgt id='6004'>0.79210E+02</wgt>
<wgt id='6005'>0.79116E+02</wgt>
<wgt id='6006'>0.79536E+02</wgt>
<wgt id='6007'>0.79096E+02</wgt>
<wgt id='6008'>0.78631E+02</wgt>
<wgt id='6009'>0.79560E+02</wgt>
<wgt id='6010'>0.78012E+02</wgt>
<wgt id='6011'>0.79190E+02</wgt>
<wgt id='6012'>0.79490E+02</wgt>
<wgt id='6013'>0.79029E+02</wgt>
<wgt id='6014'>0.79172E+02</wgt>
<wgt id='6015'>0.78678E+02</wgt>
<wgt id='6016'>0.79293E+02</wgt>
<wgt id='6017'>0.79256E+02</wgt>
<wgt id='6018'>0.79096E+02</wgt>
<wgt id='6019'>0.79289E+02</wgt>
<wgt id='6020'>0.79400E+02</wgt>
<wgt id='6021'>0.79333E+02</wgt>
<wgt id='6022'>0.79220E+02</wgt>
<wgt id='6023'>0.79263E+02</wgt>
<wgt id='6024'>0.79297E+02</wgt>
<wgt id='6025'>0.79466E+02</wgt>
<wgt id='6026'>0.79277E+02</wgt>
<wgt id='6027'>0.79252E+02</wgt>
<wgt id='6028'>0.79078E+02</wgt>
<wgt id='6029'>0.79040E+02</wgt>
<wgt id='6030'>0.80028E+02</wgt>
<wgt id='6031'>0.79061E+02</wgt>
<wgt id='6032'>0.79254E+02</wgt>
<wgt id='6033'>0.79099E+02</wgt>
<wgt id='6034'>0.79428E+02</wgt>
<wgt id='6035'>0.79268E+02</wgt>
<wgt id='6036'>0.79659E+02</wgt>
<wgt id='6037'>0.79230E+02</wgt>
<wgt id='6038'>0.79284E+02</wgt>
<wgt id='6039'>0.79355E+02</wgt>
<wgt id='6040'>0.79205E+02</wgt>
<wgt id='6041'>0.78105E+02</wgt>
<wgt id='6042'>0.80169E+02</wgt>
<wgt id='7000'>0.78687E+02</wgt>
<wgt id='7001'>0.78304E+02</wgt>
<wgt id='7002'>0.78481E+02</wgt>
<wgt id='7003'>0.78363E+02</wgt>
<wgt id='7004'>0.78422E+02</wgt>
<wgt id='7005'>0.78500E+02</wgt>
<wgt id='7006'>0.78286E+02</wgt>
<wgt id='7007'>0.78913E+02</wgt>
<wgt id='7008'>0.77887E+02</wgt>
<wgt id='7009'>0.78050E+02</wgt>
<wgt id='7010'>0.78748E+02</wgt>
<wgt id='7011'>0.78674E+02</wgt>
<wgt id='7012'>0.78114E+02</wgt>
<wgt id='7013'>0.78262E+02</wgt>
<wgt id='7014'>0.78515E+02</wgt>
<wgt id='7015'>0.78279E+02</wgt>
<wgt id='7016'>0.78266E+02</wgt>
<wgt id='7017'>0.78433E+02</wgt>
<wgt id='7018'>0.78356E+02</wgt>
<wgt id='7019'>0.78218E+02</wgt>
<wgt id='7020'>0.78578E+02</wgt>
<wgt id='7021'>0.78449E+02</wgt>
<wgt id='7022'>0.78321E+02</wgt>
<wgt id='7023'>0.78108E+02</wgt>
<wgt id='7024'>0.78691E+02</wgt>
<wgt id='7025'>0.77469E+02</wgt>
<wgt id='7026'>0.79246E+02</wgt>
<wgt id='7027'>0.78029E+02</wgt>
<wgt id='7028'>0.78807E+02</wgt>
<wgt id='8000'>0.79028E+02</wgt>
<wgt id='8001'>0.79018E+02</wgt>
<wgt id='8002'>0.79053E+02</wgt>
<wgt id='8003'>0.79030E+02</wgt>
<wgt id='8004'>0.79026E+02</wgt>
<wgt id='8005'>0.78878E+02</wgt>
<wgt id='8006'>0.79112E+02</wgt>
<wgt id='8007'>0.79192E+02</wgt>
<wgt id='8008'>0.79213E+02</wgt>
<wgt id='8009'>0.79373E+02</wgt>
<wgt id='8010'>0.78937E+02</wgt>
<wgt id='8011'>0.79042E+02</wgt>
<wgt id='8012'>0.78719E+02</wgt>
<wgt id='8013'>0.78864E+02</wgt>
<wgt id='8014'>0.79224E+02</wgt>
<wgt id='8015'>0.78982E+02</wgt>
<wgt id='8016'>0.79101E+02</wgt>
<wgt id='8017'>0.79066E+02</wgt>
<wgt id='8018'>0.79221E+02</wgt>
<wgt id='8019'>0.79112E+02</wgt>
<wgt id='8020'>0.78937E+02</wgt>
<wgt id='8021'>0.78972E+02</wgt>
<wgt id='8022'>0.78856E+02</wgt>
<wgt id='8023'>0.78973E+02</wgt>
<wgt id='8024'>0.78829E+02</wgt>
<wgt id='8025'>0.79044E+02</wgt>
<wgt id='8026'>0.79150E+02</wgt>
<wgt id='8027'>0.79064E+02</wgt>
<wgt id='8028'>0.79090E+02</wgt>
<wgt id='8029'>0.78750E+02</wgt>
<wgt id='3000'>0.81104E+02</wgt>
<wgt id='3001'>0.81272E+02</wgt>
<wgt id='3002'>0.80304E+02</wgt>
<wgt id='3003'>0.83555E+02</wgt>
<wgt id='3004'>0.81828E+02</wgt>
<wgt id='3005'>0.80330E+02</wgt>
<wgt id='3006'>0.84154E+02</wgt>
<wgt id='3007'>0.80795E+02</wgt>
<wgt id='3008'>0.80017E+02</wgt>
<wgt id='3009'>0.82057E+02</wgt>
<wgt id='3010'>0.82728E+02</wgt>
<wgt id='3011'>0.83128E+02</wgt>
<wgt id='3012'>0.81963E+02</wgt>
<wgt id='3013'>0.80159E+02</wgt>
<wgt id='3014'>0.80410E+02</wgt>
<wgt id='3015'>0.80784E+02</wgt>
<wgt id='3016'>0.82133E+02</wgt>
<wgt id='3017'>0.82578E+02</wgt>
<wgt id='3018'>0.81231E+02</wgt>
<wgt id='3019'>0.78886E+02</wgt>
<wgt id='3020'>0.79916E+02</wgt>
<wgt id='3021'>0.79505E+02</wgt>
<wgt id='3022'>0.78654E+02</wgt>
<wgt id='3023'>0.79199E+02</wgt>
<wgt id='3024'>0.79541E+02</wgt>
<wgt id='3025'>0.79570E+02</wgt>
<wgt id='3026'>0.80440E+02</wgt>
<wgt id='3027'>0.79175E+02</wgt>
<wgt id='3028'>0.82171E+02</wgt>
<wgt id='3029'>0.82248E+02</wgt>
<wgt id='3030'>0.83013E+02</wgt>
<wgt id='3031'>0.82225E+02</wgt>
<wgt id='3032'>0.83003E+02</wgt>
<wgt id='3033'>0.80090E+02</wgt>
<wgt id='3034'>0.81145E+02</wgt>
<wgt id='3035'>0.82150E+02</wgt>
<wgt id='3036'>0.81196E+02</wgt>
<wgt id='3037'>0.81517E+02</wgt>
<wgt id='3038'>0.80865E+02</wgt>
<wgt id='3039'>0.81604E+02</wgt>
<wgt id='3040'>0.80830E+02</wgt>
<wgt id='3041'>0.81021E+02</wgt>
<wgt id='3042'>0.80997E+02</wgt>
<wgt id='3043'>0.80876E+02</wgt>
<wgt id='3044'>0.80805E+02</wgt>
<wgt id='3045'>0.80973E+02</wgt>
<wgt id='3046'>0.81686E+02</wgt>
<wgt id='3047'>0.80694E+02</wgt>
<wgt id='3048'>0.79305E+02</wgt>
<wgt id='3049'>0.81872E+02</wgt>
<wgt id='3050'>0.82843E+02</wgt>
<wgt id='3051'>0.81606E+02</wgt>
<wgt id='3052'>0.79947E+02</wgt>
<wgt id='3053'>0.80387E+02</wgt>
<wgt id='3054'>0.81868E+02</wgt>
<wgt id='3055'>0.79252E+02</wgt>
<wgt id='3056'>0.80578E+02</wgt>
<wgt id='3057'>0.80594E+02</wgt>
<wgt id='3058'>0.79115E+02</wgt>
<wgt id='3059'>0.82113E+02</wgt>
<wgt id='3060'>0.81584E+02</wgt>
<wgt id='3061'>0.81297E+02</wgt>
<wgt id='3062'>0.80860E+02</wgt>
<wgt id='3063'>0.78651E+02</wgt>
<wgt id='3064'>0.80551E+02</wgt>
<wgt id='3065'>0.80323E+02</wgt>
<wgt id='3066'>0.81362E+02</wgt>
<wgt id='3067'>0.79588E+02</wgt>
<wgt id='3068'>0.81689E+02</wgt>
<wgt id='3069'>0.80681E+02</wgt>
<wgt id='3070'>0.79868E+02</wgt>
<wgt id='3071'>0.82152E+02</wgt>
<wgt id='3072'>0.80684E+02</wgt>
<wgt id='3073'>0.81880E+02</wgt>
<wgt id='3074'>0.81894E+02</wgt>
<wgt id='3075'>0.82531E+02</wgt>
<wgt id='3076'>0.82536E+02</wgt>
<wgt id='3077'>0.79867E+02</wgt>
<wgt id='3078'>0.82235E+02</wgt>
<wgt id='3079'>0.80648E+02</wgt>
<wgt id='3080'>0.81292E+02</wgt>
<wgt id='3081'>0.79337E+02</wgt>
<wgt id='3082'>0.82133E+02</wgt>
<wgt id='3083'>0.81201E+02</wgt>
<wgt id='3084'>0.80866E+02</wgt>
<wgt id='3085'>0.84095E+02</wgt>
<wgt id='3086'>0.79952E+02</wgt>
<wgt id='3087'>0.82006E+02</wgt>
<wgt id='3088'>0.82827E+02</wgt>
<wgt id='3089'>0.83434E+02</wgt>
<wgt id='3090'>0.81328E+02</wgt>
<wgt id='3091'>0.80250E+02</wgt>
<wgt id='3092'>0.82148E+02</wgt>
<wgt id='3093'>0.81389E+02</wgt>
<wgt id='3094'>0.80996E+02</wgt>
<wgt id='3095'>0.81478E+02</wgt>
<wgt id='3096'>0.80174E+02</wgt>
<wgt id='3097'>0.80032E+02</wgt>
<wgt id='3098'>0.81828E+02</wgt>
<wgt id='3099'>0.79934E+02</wgt>
<wgt id='3100'>0.80245E+02</wgt>
<wgt id='3200'>0.77999E+02</wgt>
<wgt id='3201'>0.78602E+02</wgt>
<wgt id='3202'>0.77004E+02</wgt>
<wgt id='3203'>0.77985E+02</wgt>
<wgt id='3204'>0.77344E+02</wgt>
<wgt id='3205'>0.78819E+02</wgt>
<wgt id='3206'>0.78391E+02</wgt>
<wgt id='3207'>0.78767E+02</wgt>
<wgt id='3208'>0.78486E+02</wgt>
<wgt id='3209'>0.77794E+02</wgt>
<wgt id='3210'>0.77880E+02</wgt>
<wgt id='3211'>0.78621E+02</wgt>
<wgt id='3212'>0.76815E+02</wgt>
<wgt id='3213'>0.77825E+02</wgt>
<wgt id='3214'>0.77511E+02</wgt>
<wgt id='3215'>0.78029E+02</wgt>
<wgt id='3216'>0.78882E+02</wgt>
<wgt id='3217'>0.78375E+02</wgt>
<wgt id='3218'>0.77963E+02</wgt>
<wgt id='3219'>0.77771E+02</wgt>
<wgt id='3220'>0.77584E+02</wgt>
<wgt id='3221'>0.78832E+02</wgt>
<wgt id='3222'>0.79278E+02</wgt>
<wgt id='3223'>0.77517E+02</wgt>
<wgt id='3224'>0.77858E+02</wgt>
<wgt id='3225'>0.78591E+02</wgt>
<wgt id='3226'>0.78385E+02</wgt>
<wgt id='3227'>0.77483E+02</wgt>
<wgt id='3228'>0.77543E+02</wgt>
<wgt id='3229'>0.78316E+02</wgt>
<wgt id='3230'>0.78535E+02</wgt>
<wgt id='3231'>0.78300E+02</wgt>
<wgt id='3232'>0.78414E+02</wgt>
<wgt id='3233'>0.78725E+02</wgt>
<wgt id='3234'>0.78002E+02</wgt>
<wgt id='3235'>0.77232E+02</wgt>
<wgt id='3236'>0.76996E+02</wgt>
<wgt id='3237'>0.77589E+02</wgt>
<wgt id='3238'>0.77979E+02</wgt>
<wgt id='3239'>0.77571E+02</wgt>
<wgt id='3240'>0.77787E+02</wgt>
<wgt id='3241'>0.78666E+02</wgt>
<wgt id='3242'>0.77353E+02</wgt>
<wgt id='3243'>0.76937E+02</wgt>
<wgt id='3244'>0.77741E+02</wgt>
<wgt id='3245'>0.78307E+02</wgt>
<wgt id='3246'>0.77502E+02</wgt>
<wgt id='3247'>0.78169E+02</wgt>
<wgt id='3248'>0.77785E+02</wgt>
<wgt id='3249'>0.77666E+02</wgt>
<wgt id='3250'>0.78366E+02</wgt>
<wgt id='3251'>0.78034E+02</wgt>
<wgt id='3252'>0.78160E+02</wgt>
<wgt id='3253'>0.77791E+02</wgt>
<wgt id='3254'>0.77674E+02</wgt>
<wgt id='3255'>0.77934E+02</wgt>
<wgt id='3256'>0.77363E+02</wgt>
<wgt id='3257'>0.77758E+02</wgt>
<wgt id='3258'>0.78433E+02</wgt>
<wgt id='3259'>0.78437E+02</wgt>
<wgt id='3260'>0.78333E+02</wgt>
<wgt id='3261'>0.78807E+02</wgt>
<wgt id='3262'>0.77552E+02</wgt>
<wgt id='3263'>0.78765E+02</wgt>
<wgt id='3264'>0.78218E+02</wgt>
<wgt id='3265'>0.78053E+02</wgt>
<wgt id='3266'>0.77589E+02</wgt>
<wgt id='3267'>0.77683E+02</wgt>
<wgt id='3268'>0.78760E+02</wgt>
<wgt id='3269'>0.78172E+02</wgt>
<wgt id='3270'>0.77856E+02</wgt>
<wgt id='3271'>0.78074E+02</wgt>
<wgt id='3272'>0.78497E+02</wgt>
<wgt id='3273'>0.77870E+02</wgt>
<wgt id='3274'>0.78421E+02</wgt>
<wgt id='3275'>0.78245E+02</wgt>
<wgt id='3276'>0.77495E+02</wgt>
<wgt id='3277'>0.77119E+02</wgt>
<wgt id='3278'>0.77764E+02</wgt>
<wgt id='3279'>0.78854E+02</wgt>
<wgt id='3280'>0.77861E+02</wgt>
<wgt id='3281'>0.78246E+02</wgt>
<wgt id='3282'>0.78366E+02</wgt>
<wgt id='3283'>0.78375E+02</wgt>
<wgt id='3284'>0.78194E+02</wgt>
<wgt id='3285'>0.77235E+02</wgt>
<wgt id='3286'>0.77855E+02</wgt>
<wgt id='3287'>0.77480E+02</wgt>
<wgt id='3288'>0.78352E+02</wgt>
<wgt id='3289'>0.79060E+02</wgt>
<wgt id='3290'>0.79444E+02</wgt>
<wgt id='3291'>0.76531E+02</wgt>
<wgt id='3292'>0.76833E+02</wgt>
<wgt id='3293'>0.77804E+02</wgt>
<wgt id='3294'>0.76350E+02</wgt>
<wgt id='3295'>0.77454E+02</wgt>
<wgt id='3296'>0.79321E+02</wgt>
<wgt id='3297'>0.77580E+02</wgt>
<wgt id='3298'>0.78070E+02</wgt>
<wgt id='3299'>0.77460E+02</wgt>
<wgt id='3300'>0.78581E+02</wgt>
<wgt id='3301'>0.76511E+02</wgt>
<wgt id='3302'>0.79372E+02</wgt>
<wgt id='3400'>0.78457E+02</wgt>
<wgt id='3401'>0.78533E+02</wgt>
<wgt id='3402'>0.78071E+02</wgt>
<wgt id='3403'>0.79252E+02</wgt>
<wgt id='3404'>0.79583E+02</wgt>
<wgt id='3405'>0.79473E+02</wgt>
<wgt id='3406'>0.78107E+02</wgt>
<wgt id='3407'>0.77649E+02</wgt>
<wgt id='3408'>0.79939E+02</wgt>
<wgt id='3409'>0.79646E+02</wgt>
<wgt id='3410'>0.78749E+02</wgt>
<wgt id='3411'>0.78697E+02</wgt>
<wgt id='3412'>0.78980E+02</wgt>
<wgt id='3413'>0.78296E+02</wgt>
<wgt id='3414'>0.78539E+02</wgt>
<wgt id='3415'>0.78602E+02</wgt>
<wgt id='3416'>0.78135E+02</wgt>
<wgt id='3417'>0.78201E+02</wgt>
<wgt id='3418'>0.77990E+02</wgt>
<wgt id='3419'>0.77911E+02</wgt>
<wgt id='3420'>0.79033E+02</wgt>
<wgt id='3421'>0.79171E+02</wgt>
<wgt id='3422'>0.78907E+02</wgt>
<wgt id='3423'>0.79199E+02</wgt>
<wgt id='3424'>0.78717E+02</wgt>
<wgt id='3425'>0.78541E+02</wgt>
<wgt id='3426'>0.78636E+02</wgt>
<wgt id='3427'>0.78710E+02</wgt>
<wgt id='3428'>0.79136E+02</wgt>
<wgt id='3429'>0.77885E+02</wgt>
<wgt id='3430'>0.78680E+02</wgt>
<wgt id='3431'>0.78227E+02</wgt>
<wgt id='3432'>0.77732E+02</wgt>
<wgt id='3433'>0.77091E+02</wgt>
<wgt id='3434'>0.78487E+02</wgt>
<wgt id='3435'>0.78736E+02</wgt>
<wgt id='3436'>0.78495E+02</wgt>
<wgt id='3437'>0.78019E+02</wgt>
<wgt id='3438'>0.77693E+02</wgt>
<wgt id='3439'>0.79302E+02</wgt>
<wgt id='3440'>0.78628E+02</wgt>
<wgt id='3441'>0.78504E+02</wgt>
<wgt id='3442'>0.77174E+02</wgt>
<wgt id='3443'>0.78239E+02</wgt>
<wgt id='3444'>0.78550E+02</wgt>
<wgt id='3445'>0.78056E+02</wgt>
<wgt id='3446'>0.79511E+02</wgt>
<wgt id='3447'>0.79859E+02</wgt>
<wgt id='3448'>0.78865E+02</wgt>
<wgt id='3449'>0.79395E+02</wgt>
<wgt id='3450'>0.78609E+02</wgt>
<wgt id='3451'>0.79165E+02</wgt>
<wgt id='3452'>0.77939E+02</wgt>
<wgt id='3453'>0.77695E+02</wgt>
<wgt id='3454'>0.77517E+02</wgt>
<wgt id='3455'>0.79513E+02</wgt>
<wgt id='3456'>0.78829E+02</wgt>
<wgt id='3457'>0.79805E+02</wgt>
<wgt id='3458'>0.78846E+02</wgt>
<wgt id='3459'>0.78288E+02</wgt>
<wgt id='3460'>0.78325E+02</wgt>
<wgt id='3461'>0.78050E+02</wgt>
<wgt id='3462'>0.78041E+02</wgt>
<wgt id='3463'>0.77819E+02</wgt>
<wgt id='3464'>0.78791E+02</wgt>
<wgt id='3465'>0.78294E+02</wgt>
<wgt id='3466'>0.78985E+02</wgt>
<wgt id='3467'>0.78169E+02</wgt>
<wgt id='3468'>0.77859E+02</wgt>
<wgt id='3469'>0.78772E+02</wgt>
<wgt id='3470'>0.78395E+02</wgt>
<wgt id='3471'>0.78288E+02</wgt>
<wgt id='3472'>0.77817E+02</wgt>
<wgt id='3473'>0.78622E+02</wgt>
<wgt id='3474'>0.78599E+02</wgt>
<wgt id='3475'>0.78267E+02</wgt>
<wgt id='3476'>0.78400E+02</wgt>
<wgt id='3477'>0.77897E+02</wgt>
<wgt id='3478'>0.79022E+02</wgt>
<wgt id='3479'>0.79088E+02</wgt>
<wgt id='3480'>0.77602E+02</wgt>
<wgt id='3481'>0.78246E+02</wgt>
<wgt id='3482'>0.78341E+02</wgt>
<wgt id='3483'>0.77038E+02</wgt>
<wgt id='3484'>0.78575E+02</wgt>
<wgt id='3485'>0.78077E+02</wgt>
<wgt id='3486'>0.77469E+02</wgt>
<wgt id='3487'>0.79038E+02</wgt>
<wgt id='3488'>0.79076E+02</wgt>
<wgt id='3489'>0.77783E+02</wgt>
<wgt id='3490'>0.79133E+02</wgt>
<wgt id='3491'>0.77929E+02</wgt>
<wgt id='3492'>0.78891E+02</wgt>
<wgt id='3493'>0.77451E+02</wgt>
<wgt id='3494'>0.76468E+02</wgt>
<wgt id='3495'>0.78648E+02</wgt>
<wgt id='3496'>0.77432E+02</wgt>
<wgt id='3497'>0.77922E+02</wgt>
<wgt id='3498'>0.78241E+02</wgt>
<wgt id='3499'>0.78549E+02</wgt>
<wgt id='3500'>0.78655E+02</wgt>
</rwgt>
</event>
<event>
     13 322200  8.11039E+01  1.15219E+01 -1.00000E+00  1.85147E-01
      21    -1     0     0   504   505  0.000000000E+00  0.000000000E+00  1.205235924E+03  1.205235924E+03  0.000000000E+00  0.00000E+00  9.000E+00
      21    -1     0     0   503   504  0.000000000E+00  0.000000000E+00 -1.461542997E+02  1.461542997E+02  0.000000000E+00  0.00000E+00  9.000E+00
       6     2     1     2   502     0  3.168039285E+01 -1.020363313E+02 -1.976697136E+01  2.036671976E+02  1.722629793E+02  0.00000E+00  9.000E+00
      -6     2     1     2     0   505 -4.271835782E+01  9.873231496E+01  1.102699945E+03  1.121234538E+03  1.721824413E+02  0.00000E+00  9.000E+00
      21     1     1     2   503   502  1.103796497E+01  3.304016337E+00 -2.385134857E+01  2.648848851E+01  8.259061849E-07  0.00000E+00  9.000E+00
      24     2     3     3     0     0  5.577634191E+01 -1.323953249E+02 -2.454231982E+01  1.642883860E+02  7.582101264E+01  0.00000E+00  9.000E+00
       5     1     3     3   502     0 -2.409594906E+01  3.035899356E+01  4.775348457E+00  3.937881161E+01  5.060000000E+00  0.00000E+00 -1.000E+00
     -24     2     4     4     0     0 -1.897102801E+01 -6.396167949E+00  3.112552659E+02  3.224691051E+02  8.188816972E+01  0.00000E+00  9.000E+00
      -5     1     4     4     0   505 -2.374732981E+01  1.051284829E+02  7.914446788E+02  7.987654329E+02  5.060000000E+00  0.00000E+00  1.000E+00
     -11     1     6     6     0     0 -1.603622472E+01 -1.818814954E+01 -1.611949632E+01  2.911713325E+01  5.100000000E-04  0.00000E+00  1.000E+00
      12     1     6     6     0     0  7.181256662E+01 -1.142071753E+02 -8.422823504E+00  1.351712528E+02  0.000000000E+00  0.00000E+00 -1.000E+00
      11     1     8     8     0     0 -5.118868422E+01 -3.873952154E+00  2.099170246E+02  2.161028600E+02  5.100000000E-04  0.00000E+00 -1.000E+00
     -12     1     8     8     0     0  3.221765621E+01 -2.522215795E+00  1.013382413E+02  1.063662451E+02  0.000000000E+00  0.00000E+00  1.000E+00
#rwgt            1           1   1128.4369533443166               10        5183           0
<rwgt>
<wgt id='1001'>0.81104E+02</wgt>
<wgt id='1002'>0.81751E+02</wgt>
<wgt id='1003'>0.79950E+02</wgt>
<wgt id='1004'>0.68122E+02</wgt>
<wgt id='1005'>0.68089E+02</wgt>
<wgt id='1006'>0.67841E+02</wgt>
<wgt id='1007'>0.98298E+02</wgt>
<wgt id='1008'>0.10009E+03</wgt>
<wgt id='1009'>0.95702E+02</wgt>
<wgt id='2000'>0.81104E+02</wgt>
<wgt id='2001'>0.81024E+02</wgt>
<wgt id='2002'>0.80995E+02</wgt>
<wgt id='2003'>0.80842E+02</wgt>
<wgt id='2004'>0.81533E+02</wgt>
<wgt id='2005'>0.80802E+02</wgt>
<wgt id='2006'>0.81263E+02</wgt>
<wgt id='2007'>0.81210E+02</wgt>
<wgt id='2008'>0.81211E+02</wgt>
<wgt id='2009'>0.81299E+02</wgt>
<wgt id='2010'>0.80979E+02</wgt>
<wgt id='2011'>0.80976E+02</wgt>
<wgt id='2012'>0.81535E+02</wgt>
<wgt id='2013'>0.81111E+02</wgt>
<wgt id='2014'>0.81271E+02</wgt>
<wgt id='2015'>0.81306E+02</wgt>
<wgt id='2016'>0.81095E+02</wgt>
<wgt id='2017'>0.81048E+02</wgt>
<wgt id='2018'>0.80750E+02</wgt>
<wgt id='2019'>0.80885E+02</wgt>
<wgt id='2020'>0.80631E+02</wgt>
<wgt id='2021'>0.81176E+02</wgt>
<wgt id='2022'>0.81044E+02</wgt>
<wgt id='2023'>0.81124E+02</wgt>
<wgt id='2024'>0.80456E+02</wgt>
<wgt id='2025'>0.81406E+02</wgt>
<wgt id='2026'>0.81311E+02</wgt>
<wgt id='2027'>0.81609E+02</wgt>
<wgt id='2028'>0.80529E+02</wgt>
<wgt id='2029'>0.80780E+02</wgt>
<wgt id='2030'>0.81202E+02</wgt>
<wgt id='2031'>0.80745E+02</wgt>
<wgt id='2032'>0.81018E+02</wgt>
<wgt id='2033'>0.80917E+02</wgt>
<wgt id='2034'>0.80767E+02</wgt>
<wgt id='2035'>0.81087E+02</wgt>
<wgt id='2036'>0.81213E+02</wgt>
<wgt id='2037'>0.80899E+02</wgt>
<wgt id='2038'>0.81034E+02</wgt>
<wgt id='2039'>0.80944E+02</wgt>
<wgt id='2040'>0.80939E+02</wgt>
<wgt id='2041'>0.80954E+02</wgt>
<wgt id='2042'>0.81289E+02</wgt>
<wgt id='2043'>0.81106E+02</wgt>
<wgt id='2044'>0.81232E+02</wgt>
<wgt id='2045'>0.81106E+02</wgt>
<wgt id='2046'>0.81030E+02</wgt>
<wgt id='2047'>0.81143E+02</wgt>
<wgt id='2048'>0.81091E+02</wgt>
<wgt id='2049'>0.81027E+02</wgt>
<wgt id='2050'>0.80973E+02</wgt>
<wgt id='2051'>0.80993E+02</wgt>
<wgt id='2052'>0.81284E+02</wgt>
<wgt id='2053'>0.81102E+02</wgt>
<wgt id='2054'>0.81077E+02</wgt>
<wgt id='2055'>0.81026E+02</wgt>
<wgt id='2056'>0.81040E+02</wgt>
<wgt id='2057'>0.81151E+02</wgt>
<wgt id='2058'>0.81180E+02</wgt>
<wgt id='2059'>0.81106E+02</wgt>
<wgt id='2060'>0.81066E+02</wgt>
<wgt id='2061'>0.81026E+02</wgt>
<wgt id='2062'>0.81217E+02</wgt>
<wgt id='2063'>0.81105E+02</wgt>
<wgt id='2064'>0.81112E+02</wgt>
<wgt id='2065'>0.81197E+02</wgt>
<wgt id='2066'>0.81050E+02</wgt>
<wgt id='2067'>0.81055E+02</wgt>
<wgt id='2068'>0.81195E+02</wgt>
<wgt id='2069'>0.81091E+02</wgt>
<wgt id='2070'>0.81131E+02</wgt>
<wgt id='2071'>0.81065E+02</wgt>
<wgt id='2072'>0.81067E+02</wgt>
<wgt id='2073'>0.81141E+02</wgt>
<wgt id='2074'>0.81070E+02</wgt>
<wgt id='2075'>0.81091E+02</wgt>
<wgt id='2076'>0.81089E+02</wgt>
<wgt id='2077'>0.81166E+02</wgt>
<wgt id='2078'>0.81119E+02</wgt>
<wgt id='2079'>0.81073E+02</wgt>
<wgt id='2080'>0.81114E+02</wgt>
<wgt id='2081'>0.81085E+02</wgt>
<wgt id='2082'>0.81118E+02</wgt>
<wgt id='2083'>0.81181E+02</wgt>
<wgt id='2084'>0.81096E+02</wgt>
<wgt id='2085'>0.81127E+02</wgt>
<wgt id='2086'>0.81094E+02</wgt>
<wgt id='2087'>0.81116E+02</wgt>
<wgt id='2088'>0.81088E+02</wgt>
<wgt id='2089'>0.81078E+02</wgt>
<wgt id='2090'>0.81132E+02</wgt>
<wgt id='2091'>0.81115E+02</wgt>
<wgt id='2092'>0.81154E+02</wgt>
<wgt id='2093'>0.81064E+02</wgt>
<wgt id='2094'>0.81107E+02</wgt>
<wgt id='2095'>0.81139E+02</wgt>
<wgt id='2096'>0.81079E+02</wgt>
<wgt id='2097'>0.81127E+02</wgt>
<wgt id='2098'>0.81110E+02</wgt>
<wgt id='2099'>0.81123E+02</wgt>
<wgt id='2100'>0.81104E+02</wgt>
<wgt id='2101'>0.78773E+02</wgt>
<wgt id='2102'>0.83233E+02</wgt>
<wgt id='2200'>0.80812E+02</wgt>
<wgt id='2201'>0.69359E+02</wgt>
<wgt id='2202'>0.71650E+02</wgt>
<wgt id='2203'>0.74335E+02</wgt>
<wgt id='2204'>0.76127E+02</wgt>
<wgt id='2205'>0.79592E+02</wgt>
<wgt id='2206'>0.82395E+02</wgt>
<wgt id='2207'>0.85594E+02</wgt>
<wgt id='2208'>0.88628E+02</wgt>
<wgt id='2300'>0.87013E+02</wgt>
<wgt id='2301'>0.87075E+02</wgt>
<wgt id='2302'>0.87053E+02</wgt>
<wgt id='2303'>0.86953E+02</wgt>
<wgt id='2304'>0.87324E+02</wgt>
<wgt id='2305'>0.87089E+02</wgt>
<wgt id='2306'>0.86962E+02</wgt>
<wgt id='2307'>0.87098E+02</wgt>
<wgt id='2308'>0.86877E+02</wgt>
<wgt id='2309'>0.87059E+02</wgt>
<wgt id='2310'>0.86692E+02</wgt>
<wgt id='2311'>0.86961E+02</wgt>
<wgt id='2312'>0.87195E+02</wgt>
<wgt id='2313'>0.87088E+02</wgt>
<wgt id='2314'>0.87042E+02</wgt>
<wgt id='2315'>0.86896E+02</wgt>
<wgt id='2316'>0.87152E+02</wgt>
<wgt id='2317'>0.87080E+02</wgt>
<wgt id='2318'>0.87209E+02</wgt>
<wgt id='2319'>0.86824E+02</wgt>
<wgt id='2320'>0.86969E+02</wgt>
<wgt id='2321'>0.86962E+02</wgt>
<wgt id='2322'>0.86894E+02</wgt>
<wgt id='2323'>0.86794E+02</wgt>
<wgt id='2324'>0.86890E+02</wgt>
<wgt id='2325'>0.87044E+02</wgt>
<wgt id='2326'>0.86972E+02</wgt>
<wgt id='2327'>0.87091E+02</wgt>
<wgt id='2328'>0.86863E+02</wgt>
<wgt id='2329'>0.87050E+02</wgt>
<wgt id='2330'>0.87405E+02</wgt>
<wgt id='2331'>0.87127E+02</wgt>
<wgt id='2332'>0.86789E+02</wgt>
<wgt id='2333'>0.86783E+02</wgt>
<wgt id='2334'>0.87029E+02</wgt>
<wgt id='2335'>0.86255E+02</wgt>
<wgt id='2336'>0.87012E+02</wgt>
<wgt id='2337'>0.87443E+02</wgt>
<wgt id='2338'>0.87003E+02</wgt>
<wgt id='2339'>0.86901E+02</wgt>
<wgt id='2340'>0.87492E+02</wgt>
<wgt id='2341'>0.87309E+02</wgt>
<wgt id='2342'>0.86795E+02</wgt>
<wgt id='2343'>0.86780E+02</wgt>
<wgt id='2344'>0.86996E+02</wgt>
<wgt id='2345'>0.86956E+02</wgt>
<wgt id='2346'>0.87514E+02</wgt>
<wgt id='2347'>0.87042E+02</wgt>
<wgt id='2348'>0.87060E+02</wgt>
<wgt id='2349'>0.87045E+02</wgt>
<wgt id='2350'>0.86645E+02</wgt>
<wgt id='2351'>0.87135E+02</wgt>
<wgt id='2352'>0.86757E+02</wgt>
<wgt id='2353'>0.87087E+02</wgt>
<wgt id='2354'>0.87149E+02</wgt>
<wgt id='2355'>0.86649E+02</wgt>
<wgt id='2356'>0.86939E+02</wgt>
<wgt id='2357'>0.87071E+02</wgt>
<wgt id='2358'>0.86830E+02</wgt>
<wgt id='2359'>0.86965E+02</wgt>
<wgt id='2360'>0.87215E+02</wgt>
<wgt id='2361'>0.87051E+02</wgt>
<wgt id='2362'>0.87145E+02</wgt>
<wgt id='2363'>0.86891E+02</wgt>
<wgt id='2364'>0.87011E+02</wgt>
<wgt id='2365'>0.86864E+02</wgt>
<wgt id='2366'>0.87044E+02</wgt>
<wgt id='2367'>0.86764E+02</wgt>
<wgt id='2368'>0.87064E+02</wgt>
<wgt id='2369'>0.86942E+02</wgt>
<wgt id='2370'>0.86979E+02</wgt>
<wgt id='2371'>0.86924E+02</wgt>
<wgt id='2372'>0.87078E+02</wgt>
<wgt id='2373'>0.87002E+02</wgt>
<wgt id='2374'>0.87114E+02</wgt>
<wgt id='2375'>0.87085E+02</wgt>
<wgt id='2376'>0.87047E+02</wgt>
<wgt id='2377'>0.87013E+02</wgt>
<wgt id='2378'>0.87075E+02</wgt>
<wgt id='2379'>0.86924E+02</wgt>
<wgt id='2380'>0.86969E+02</wgt>
<wgt id='2381'>0.86977E+02</wgt>
<wgt id='2382'>0.86963E+02</wgt>
<wgt id='2383'>0.86974E+02</wgt>
<wgt id='2384'>0.86962E+02</wgt>
<wgt id='2385'>0.87057E+02</wgt>
<wgt id='2386'>0.87026E+02</wgt>
<wgt id='2387'>0.86933E+02</wgt>
<wgt id='2388'>0.86946E+02</wgt>
<wgt id='2389'>0.86988E+02</wgt>
<wgt id='2390'>0.86998E+02</wgt>
<wgt id='2391'>0.86961E+02</wgt>
<wgt id='2392'>0.87009E+02</wgt>
<wgt id='2393'>0.87039E+02</wgt>
<wgt id='2394'>0.87027E+02</wgt>
<wgt id='2395'>0.87035E+02</wgt>
<wgt id='2396'>0.86980E+02</wgt>
<wgt id='2397'>0.86988E+02</wgt>
<wgt id='2398'>0.86993E+02</wgt>
<wgt id='2399'>0.87035E+02</wgt>
<wgt id='2400'>0.87045E+02</wgt>
<wgt id='2401'>0.84782E+02</wgt>
<wgt id='2402'>0.89730E+02</wgt>
<wgt id='2500'>0.83345E+02</wgt>
<wgt id='2501'>0.88729E+02</wgt>
<wgt id='2600'>0.78599E+02</wgt>
<wgt id='2601'>0.78407E+02</wgt>
<wgt id='2602'>0.78563E+02</wgt>
<wgt id='2603'>0.78593E+02</wgt>
<wgt id='2604'>0.78631E+02</wgt>
<wgt id='2605'>0.78461E+02</wgt>
<wgt id='2606'>0.78612E+02</wgt>
<wgt id='2607'>0.78727E+02</wgt>
<wgt id='2608'>0.78687E+02</wgt>
<wgt id='2609'>0.78510E+02</wgt>
<wgt id='2610'>0.78528E+02</wgt>
<wgt id='2611'>0.78574E+02</wgt>
<wgt id='2612'>0.78702E+02</wgt>
<wgt id='2613'>0.78635E+02</wgt>
<wgt id='2614'>0.78521E+02</wgt>
<wgt id='2615'>0.78457E+02</wgt>
<wgt id='2616'>0.78680E+02</wgt>
<wgt id='2617'>0.78408E+02</wgt>
<wgt id='2618'>0.78664E+02</wgt>
<wgt id='2619'>0.78678E+02</wgt>
<wgt id='2620'>0.78398E+02</wgt>
<wgt id='2621'>0.78749E+02</wgt>
<wgt id='2622'>0.78898E+02</wgt>
<wgt id='2623'>0.78553E+02</wgt>
<wgt id='2624'>0.78518E+02</wgt>
<wgt id='2625'>0.78803E+02</wgt>
<wgt id='2626'>0.78690E+02</wgt>
<wgt id='2627'>0.78757E+02</wgt>
<wgt id='2628'>0.78521E+02</wgt>
<wgt id='2629'>0.78732E+02</wgt>
<wgt id='2630'>0.78880E+02</wgt>
<wgt id='2631'>0.78513E+02</wgt>
<wgt id='2632'>0.78344E+02</wgt>
<wgt id='2633'>0.78517E+02</wgt>
<wgt id='2634'>0.78470E+02</wgt>
<wgt id='2635'>0.78387E+02</wgt>
<wgt id='2636'>0.78680E+02</wgt>
<wgt id='2637'>0.78571E+02</wgt>
<wgt id='2638'>0.78505E+02</wgt>
<wgt id='2639'>0.78617E+02</wgt>
<wgt id='2640'>0.78591E+02</wgt>
<wgt id='2641'>0.78497E+02</wgt>
<wgt id='2642'>0.78589E+02</wgt>
<wgt id='2643'>0.78511E+02</wgt>
<wgt id='2644'>0.78592E+02</wgt>
<wgt id='2645'>0.78546E+02</wgt>
<wgt id='2646'>0.78599E+02</wgt>
<wgt id='2647'>0.78582E+02</wgt>
<wgt id='2648'>0.78593E+02</wgt>
<wgt id='2649'>0.78620E+02</wgt>
<wgt id='2650'>0.78624E+02</wgt>
<wgt id='2651'>0.77017E+02</wgt>
<wgt id='2652'>0.79791E+02</wgt>
<wgt id='2700'>0.75640E+02</wgt>
<wgt id='2701'>0.77017E+02</wgt>
<wgt id='2702'>0.77848E+02</wgt>
<wgt id='2703'>0.79284E+02</wgt>
<wgt id='2704'>0.79791E+02</wgt>
<wgt id='2705'>0.81481E+02</wgt>
<wgt id='2800'>0.81022E+02</wgt>
<wgt id='4000'>0.84135E+02</wgt>
<wgt id='4001'>0.84444E+02</wgt>
<wgt id='4002'>0.84174E+02</wgt>
<wgt id='4003'>0.83134E+02</wgt>
<wgt id='4004'>0.85535E+02</wgt>
<wgt id='4005'>0.84664E+02</wgt>
<wgt id='4006'>0.83892E+02</wgt>
<wgt id='4007'>0.84515E+02</wgt>
<wgt id='4008'>0.83835E+02</wgt>
<wgt id='4009'>0.83579E+02</wgt>
<wgt id='4010'>0.84205E+02</wgt>
<wgt id='4011'>0.84844E+02</wgt>
<wgt id='4012'>0.83260E+02</wgt>
<wgt id='4013'>0.84549E+02</wgt>
<wgt id='4014'>0.83932E+02</wgt>
<wgt id='4015'>0.84714E+02</wgt>
<wgt id='4016'>0.85197E+02</wgt>
<wgt id='4017'>0.84239E+02</wgt>
<wgt id='4018'>0.84065E+02</wgt>
<wgt id='4019'>0.84048E+02</wgt>
<wgt id='4020'>0.84470E+02</wgt>
<wgt id='4021'>0.84494E+02</wgt>
<wgt id='4022'>0.83514E+02</wgt>
<wgt id='4023'>0.84717E+02</wgt>
<wgt id='4024'>0.84585E+02</wgt>
<wgt id='4025'>0.83979E+02</wgt>
<wgt id='4026'>0.84711E+02</wgt>
<wgt id='4027'>0.85219E+02</wgt>
<wgt id='4028'>0.83306E+02</wgt>
<wgt id='4029'>0.85377E+02</wgt>
<wgt id='4030'>0.83187E+02</wgt>
<wgt id='4031'>0.84079E+02</wgt>
<wgt id='4032'>0.86075E+02</wgt>
<wgt id='4033'>0.85088E+02</wgt>
<wgt id='4034'>0.83390E+02</wgt>
<wgt id='4035'>0.84733E+02</wgt>
<wgt id='4036'>0.83727E+02</wgt>
<wgt id='4037'>0.87482E+02</wgt>
<wgt id='4038'>0.81626E+02</wgt>
<wgt id='4039'>0.86127E+02</wgt>
<wgt id='4040'>0.82374E+02</wgt>
<wgt id='4041'>0.84620E+02</wgt>
<wgt id='4042'>0.83585E+02</wgt>
<wgt id='4043'>0.83814E+02</wgt>
<wgt id='4044'>0.83462E+02</wgt>
<wgt id='4045'>0.84146E+02</wgt>
<wgt id='4046'>0.84229E+02</wgt>
<wgt id='4047'>0.84557E+02</wgt>
<wgt id='4048'>0.84448E+02</wgt>
<wgt id='4049'>0.84193E+02</wgt>
<wgt id='4050'>0.84233E+02</wgt>
<wgt id='4051'>0.84045E+02</wgt>
<wgt id='4052'>0.84508E+02</wgt>
<wgt id='4053'>0.84127E+02</wgt>
<wgt id='4054'>0.83457E+02</wgt>
<wgt id='4055'>0.84722E+02</wgt>
<wgt id='4056'>0.83561E+02</wgt>
<wgt id='4057'>0.83298E+02</wgt>
<wgt id='4058'>0.84674E+02</wgt>
<wgt id='4100'>0.84435E+02</wgt>
<wgt id='4101'>0.84238E+02</wgt>
<wgt id='4102'>0.84103E+02</wgt>
<wgt id='4103'>0.84114E+02</wgt>
<wgt id='4200'>0.81543E+02</wgt>
<wgt id='4201'>0.81507E+02</wgt>
<wgt id='4202'>0.81851E+02</wgt>
<wgt id='4203'>0.81049E+02</wgt>
<wgt id='4204'>0.81769E+02</wgt>
<wgt id='4205'>0.81507E+02</wgt>
<wgt id='4206'>0.81847E+02</wgt>
<wgt id='4207'>0.82237E+02</wgt>
<wgt id='4208'>0.81210E+02</wgt>
<wgt id='4209'>0.81303E+02</wgt>
<wgt id='4210'>0.81782E+02</wgt>
<wgt id='4211'>0.82137E+02</wgt>
<wgt id='4212'>0.81099E+02</wgt>
<wgt id='4213'>0.81667E+02</wgt>
<wgt id='4214'>0.81349E+02</wgt>
<wgt id='4215'>0.81586E+02</wgt>
<wgt id='4216'>0.81756E+02</wgt>
<wgt id='4217'>0.81535E+02</wgt>
<wgt id='4218'>0.81483E+02</wgt>
<wgt id='4219'>0.81230E+02</wgt>
<wgt id='4220'>0.81945E+02</wgt>
<wgt id='4221'>0.81298E+02</wgt>
<wgt id='4222'>0.82206E+02</wgt>
<wgt id='4223'>0.80376E+02</wgt>
<wgt id='4224'>0.81287E+02</wgt>
<wgt id='4225'>0.80708E+02</wgt>
<wgt id='4226'>0.82873E+02</wgt>
<wgt id='4227'>0.82513E+02</wgt>
<wgt id='4228'>0.80742E+02</wgt>
<wgt id='4229'>0.79886E+02</wgt>
<wgt id='4230'>0.82987E+02</wgt>
<wgt id='4231'>0.82092E+02</wgt>
<wgt id='4232'>0.80673E+02</wgt>
<wgt id='4233'>0.81819E+02</wgt>
<wgt id='4234'>0.80563E+02</wgt>
<wgt id='4235'>0.82624E+02</wgt>
<wgt id='4236'>0.80492E+02</wgt>
<wgt id='4237'>0.83086E+02</wgt>
<wgt id='4238'>0.79222E+02</wgt>
<wgt id='4239'>0.81224E+02</wgt>
<wgt id='4240'>0.81537E+02</wgt>
<wgt id='4241'>0.81743E+02</wgt>
<wgt id='4242'>0.81311E+02</wgt>
<wgt id='4243'>0.81950E+02</wgt>
<wgt id='4244'>0.81397E+02</wgt>
<wgt id='4245'>0.81648E+02</wgt>
<wgt id='4246'>0.80948E+02</wgt>
<wgt id='4247'>0.80752E+02</wgt>
<wgt id='4248'>0.81935E+02</wgt>
<wgt id='4249'>0.82827E+02</wgt>
<wgt id='4250'>0.80080E+02</wgt>
<wgt id='4251'>0.83061E+02</wgt>
<wgt id='4252'>0.80559E+02</wgt>
<wgt id='4253'>0.82379E+02</wgt>
<wgt id='4254'>0.80406E+02</wgt>
<wgt id='4255'>0.83219E+02</wgt>
<wgt id='4256'>0.80787E+02</wgt>
<wgt id='4257'>0.80028E+02</wgt>
<wgt id='4258'>0.81976E+02</wgt>
<wgt id='4300'>0.83050E+02</wgt>
<wgt id='4301'>0.83603E+02</wgt>
<wgt id='5000'>0.83109E+02</wgt>
<wgt id='5001'>0.83155E+02</wgt>
<wgt id='5002'>0.83050E+02</wgt>
<wgt id='5003'>0.83131E+02</wgt>
<wgt id='5004'>0.83089E+02</wgt>
<wgt id='5005'>0.83114E+02</wgt>
<wgt id='5006'>0.83102E+02</wgt>
<wgt id='5007'>0.83205E+02</wgt>
<wgt id='5008'>0.83031E+02</wgt>
<wgt id='5009'>0.83224E+02</wgt>
<wgt id='5010'>0.82991E+02</wgt>
<wgt id='5011'>0.83399E+02</wgt>
<wgt id='5012'>0.82830E+02</wgt>
<wgt id='5013'>0.83266E+02</wgt>
<wgt id='5014'>0.82998E+02</wgt>
<wgt id='5015'>0.82664E+02</wgt>
<wgt id='5016'>0.82664E+02</wgt>
<wgt id='5017'>0.83463E+02</wgt>
<wgt id='5018'>0.82871E+02</wgt>
<wgt id='5019'>0.83402E+02</wgt>
<wgt id='5020'>0.82707E+02</wgt>
<wgt id='5021'>0.83199E+02</wgt>
<wgt id='5022'>0.82969E+02</wgt>
<wgt id='5023'>0.83068E+02</wgt>
<wgt id='5024'>0.83208E+02</wgt>
<wgt id='5025'>0.82935E+02</wgt>
<wgt id='5026'>0.83301E+02</wgt>
<wgt id='5027'>0.83184E+02</wgt>
<wgt id='5028'>0.82910E+02</wgt>
<wgt id='5029'>0.84353E+02</wgt>
<wgt id='5030'>0.82412E+02</wgt>
<wgt id='5031'>0.82382E+02</wgt>
<wgt id='5032'>0.85351E+02</wgt>
<wgt id='5033'>0.83008E+02</wgt>
<wgt id='5034'>0.83218E+02</wgt>
<wgt id='5035'>0.83127E+02</wgt>
<wgt id='5036'>0.83086E+02</wgt>
<wgt id='5037'>0.82771E+02</wgt>
<wgt id='5038'>0.83300E+02</wgt>
<wgt id='5039'>0.83314E+02</wgt>
<wgt id='5040'>0.82598E+02</wgt>
<wgt id='5041'>0.82764E+02</wgt>
<wgt id='5042'>0.83477E+02</wgt>
<wgt id='5043'>0.83353E+02</wgt>
<wgt id='5044'>0.82924E+02</wgt>
<wgt id='5045'>0.83443E+02</wgt>
<wgt id='5046'>0.82562E+02</wgt>
<wgt id='5047'>0.83232E+02</wgt>
<wgt id='5048'>0.82573E+02</wgt>
<wgt id='5049'>0.82986E+02</wgt>
<wgt id='5050'>0.83402E+02</wgt>
<wgt id='5051'>0.83396E+02</wgt>
<wgt id='5052'>0.82917E+02</wgt>
<wgt id='5053'>0.83417E+02</wgt>
<wgt id='5054'>0.83271E+02</wgt>
<wgt id='5055'>0.83139E+02</wgt>
<wgt id='5056'>0.83195E+02</wgt>
<wgt id='5057'>0.82675E+02</wgt>
<wgt id='5058'>0.83414E+02</wgt>
<wgt id='5059'>0.82923E+02</wgt>
<wgt id='5060'>0.83217E+02</wgt>
<wgt id='5061'>0.83372E+02</wgt>
<wgt id='5062'>0.83419E+02</wgt>
<wgt id='5063'>0.83409E+02</wgt>
<wgt id='5064'>0.83240E+02</wgt>
<wgt id='5100'>0.83109E+02</wgt>
<wgt id='5101'>0.83102E+02</wgt>
<wgt id='6000'>0.82447E+02</wgt>
<wgt id='6001'>0.81863E+02</wgt>
<wgt id='6002'>0.81516E+02</wgt>
<wgt id='6003'>0.82169E+02</wgt>
<wgt id='6004'>0.82989E+02</wgt>
<wgt id='6005'>0.81842E+02</wgt>
<wgt id='6006'>0.82405E+02</wgt>
<wgt id='6007'>0.81760E+02</wgt>
<wgt id='6008'>0.82825E+02</wgt>
<wgt id='6009'>0.82266E+02</wgt>
<wgt id='6010'>0.82686E+02</wgt>
<wgt id='6011'>0.82385E+02</wgt>
<wgt id='6012'>0.82661E+02</wgt>
<wgt id='6013'>0.81964E+02</wgt>
<wgt id='6014'>0.81978E+02</wgt>
<wgt id='6015'>0.81426E+02</wgt>
<wgt id='6016'>0.82988E+02</wgt>
<wgt id='6017'>0.81998E+02</wgt>
<wgt id='6018'>0.81658E+02</wgt>
<wgt id='6019'>0.82635E+02</wgt>
<wgt id='6020'>0.82616E+02</wgt>
<wgt id='6021'>0.82358E+02</wgt>
<wgt id='6022'>0.82705E+02</wgt>
<wgt id='6023'>0.82395E+02</wgt>
<wgt id='6024'>0.82576E+02</wgt>
<wgt id='6025'>0.83077E+02</wgt>
<wgt id='6026'>0.82303E+02</wgt>
<wgt id='6027'>0.82529E+02</wgt>
<wgt id='6028'>0.81841E+02</wgt>
<wgt id='6029'>0.82090E+02</wgt>
<wgt id='6030'>0.81935E+02</wgt>
<wgt id='6031'>0.82160E+02</wgt>
<wgt id='6032'>0.82402E+02</wgt>
<wgt id='6033'>0.82310E+02</wgt>
<wgt id='6034'>0.82867E+02</wgt>
<wgt id='6035'>0.82534E+02</wgt>
<wgt id='6036'>0.83546E+02</wgt>
<wgt id='6037'>0.82440E+02</wgt>
<wgt id='6038'>0.82363E+02</wgt>
<wgt id='6039'>0.82760E+02</wgt>
<wgt id='6040'>0.82462E+02</wgt>
<wgt id='6041'>0.80981E+02</wgt>
<wgt id='6042'>0.83704E+02</wgt>
<wgt id='7000'>0.79501E+02</wgt>
<wgt id='7001'>0.78939E+02</wgt>
<wgt id='7002'>0.79120E+02</wgt>
<wgt id='7003'>0.78994E+02</wgt>
<wgt id='7004'>0.79065E+02</wgt>
<wgt id='7005'>0.79078E+02</wgt>
<wgt id='7006'>0.78981E+02</wgt>
<wgt id='7007'>0.79530E+02</wgt>
<wgt id='7008'>0.78543E+02</wgt>
<wgt id='7009'>0.78587E+02</wgt>
<wgt id='7010'>0.79487E+02</wgt>
<wgt id='7011'>0.79328E+02</wgt>
<wgt id='7012'>0.78741E+02</wgt>
<wgt id='7013'>0.79008E+02</wgt>
<wgt id='7014'>0.79045E+02</wgt>
<wgt id='7015'>0.79201E+02</wgt>
<wgt id='7016'>0.78656E+02</wgt>
<wgt id='7017'>0.78891E+02</wgt>
<wgt id='7018'>0.79181E+02</wgt>
<wgt id='7019'>0.79416E+02</wgt>
<wgt id='7020'>0.78665E+02</wgt>
<wgt id='7021'>0.80395E+02</wgt>
<wgt id='7022'>0.77740E+02</wgt>
<wgt id='7023'>0.77813E+02</wgt>
<wgt id='7024'>0.80261E+02</wgt>
<wgt id='7025'>0.77283E+02</wgt>
<wgt id='7026'>0.80743E+02</wgt>
<wgt id='7027'>0.78249E+02</wgt>
<wgt id='7028'>0.79885E+02</wgt>
<wgt id='8000'>0.80284E+02</wgt>
<wgt id='8001'>0.80277E+02</wgt>
<wgt id='8002'>0.80309E+02</wgt>
<wgt id='8003'>0.80283E+02</wgt>
<wgt id='8004'>0.80281E+02</wgt>
<wgt id='8005'>0.80134E+02</wgt>
<wgt id='8006'>0.80414E+02</wgt>
<wgt id='8007'>0.80515E+02</wgt>
<wgt id='8008'>0.80468E+02</wgt>
<wgt id='8009'>0.80640E+02</wgt>
<wgt id='8010'>0.80166E+02</wgt>
<wgt id='8011'>0.80334E+02</wgt>
<wgt id='8012'>0.79942E+02</wgt>
<wgt id='8013'>0.80078E+02</wgt>
<wgt id='8014'>0.80551E+02</wgt>
<wgt id='8015'>0.80232E+02</wgt>
<wgt id='8016'>0.80428E+02</wgt>
<wgt id='8017'>0.80421E+02</wgt>
<wgt id='8018'>0.80654E+02</wgt>
<wgt id='8019'>0.80080E+02</wgt>
<wgt id='8020'>0.80674E+02</wgt>
<wgt id='8021'>0.80094E+02</wgt>
<wgt id='8022'>0.80985E+02</wgt>
<wgt id='8023'>0.79917E+02</wgt>
<wgt id='8024'>0.79557E+02</wgt>
<wgt id='8025'>0.79730E+02</wgt>
<wgt id='8026'>0.80258E+02</wgt>
<wgt id='8027'>0.80493E+02</wgt>
<wgt id='8028'>0.80298E+02</wgt>
<wgt id='8029'>0.82197E+02</wgt>
<wgt id='3000'>0.81104E+02</wgt>
<wgt id='3001'>0.83446E+02</wgt>
<wgt id='3002'>0.80304E+02</wgt>
<wgt id='3003'>0.83178E+02</wgt>
<wgt id='3004'>0.82018E+02</wgt>
<wgt id='3005'>0.81774E+02</wgt>
<wgt id='3006'>0.81802E+02</wgt>
<wgt id='3007'>0.78248E+02</wgt>
<wgt id='3008'>0.77637E+02</wgt>
<wgt id='3009'>0.80665E+02</wgt>
<wgt id='3010'>0.87254E+02</wgt>
<wgt id='3011'>0.82521E+02</wgt>
<wgt id='3012'>0.79100E+02</wgt>
<wgt id='3013'>0.80812E+02</wgt>
<wgt id='3014'>0.80183E+02</wgt>
<wgt id='3015'>0.80271E+02</wgt>
<wgt id='3016'>0.80806E+02</wgt>
<wgt id='3017'>0.81232E+02</wgt>
<wgt id='3018'>0.78539E+02</wgt>
<wgt id='3019'>0.79734E+02</wgt>
<wgt id='3020'>0.80236E+02</wgt>
<wgt id='3021'>0.80397E+02</wgt>
<wgt id='3022'>0.78840E+02</wgt>
<wgt id='3023'>0.79238E+02</wgt>
<wgt id='3024'>0.80238E+02</wgt>
<wgt id='3025'>0.78675E+02</wgt>
<wgt id='3026'>0.80030E+02</wgt>
<wgt id='3027'>0.83200E+02</wgt>
<wgt id='3028'>0.78233E+02</wgt>
<wgt id='3029'>0.81300E+02</wgt>
<wgt id='3030'>0.80843E+02</wgt>
<wgt id='3031'>0.87047E+02</wgt>
<wgt id='3032'>0.79492E+02</wgt>
<wgt id='3033'>0.79405E+02</wgt>
<wgt id='3034'>0.81398E+02</wgt>
<wgt id='3035'>0.85098E+02</wgt>
<wgt id='3036'>0.81327E+02</wgt>
<wgt id='3037'>0.79826E+02</wgt>
<wgt id='3038'>0.80856E+02</wgt>
<wgt id='3039'>0.81837E+02</wgt>
<wgt id='3040'>0.80227E+02</wgt>
<wgt id='3041'>0.81238E+02</wgt>
<wgt id='3042'>0.80821E+02</wgt>
<wgt id='3043'>0.82486E+02</wgt>
<wgt id='3044'>0.82392E+02</wgt>
<wgt id='3045'>0.81242E+02</wgt>
<wgt id='3046'>0.80734E+02</wgt>
<wgt id='3047'>0.81243E+02</wgt>
<wgt id='3048'>0.81547E+02</wgt>
<wgt id='3049'>0.82622E+02</wgt>
<wgt id='3050'>0.83764E+02</wgt>
<wgt id='3051'>0.80755E+02</wgt>
<wgt id='3052'>0.79327E+02</wgt>
<wgt id='3053'>0.82930E+02</wgt>
<wgt id='3054'>0.79510E+02</wgt>
<wgt id='3055'>0.80218E+02</wgt>
<wgt id='3056'>0.80162E+02</wgt>
<wgt id='3057'>0.79582E+02</wgt>
<wgt id='3058'>0.82178E+02</wgt>
<wgt id='3059'>0.79410E+02</wgt>
<wgt id='3060'>0.80366E+02</wgt>
<wgt id='3061'>0.81532E+02</wgt>
<wgt id='3062'>0.82181E+02</wgt>
<wgt id='3063'>0.80525E+02</wgt>
<wgt id='3064'>0.82512E+02</wgt>
<wgt id='3065'>0.78693E+02</wgt>
<wgt id='3066'>0.82552E+02</wgt>
<wgt id='3067'>0.80901E+02</wgt>
<wgt id='3068'>0.80107E+02</wgt>
<wgt id='3069'>0.80332E+02</wgt>
<wgt id='3070'>0.82234E+02</wgt>
<wgt id='3071'>0.81759E+02</wgt>
<wgt id='3072'>0.82682E+02</wgt>
<wgt id='3073'>0.80444E+02</wgt>
<wgt id='3074'>0.80466E+02</wgt>
<wgt id='3075'>0.81529E+02</wgt>
<wgt id='3076'>0.84924E+02</wgt>
<wgt id='3077'>0.81676E+02</wgt>
<wgt id='3078'>0.81038E+02</wgt>
<wgt id='3079'>0.81209E+02</wgt>
<wgt id='3080'>0.84459E+02</wgt>
<wgt id='3081'>0.81671E+02</wgt>
<wgt id='3082'>0.80806E+02</wgt>
<wgt id='3083'>0.81271E+02</wgt>
<wgt id='3084'>0.79472E+02</wgt>
<wgt id='3085'>0.81392E+02</wgt>
<wgt id='3086'>0.82465E+02</wgt>
<wgt id='3087'>0.79829E+02</wgt>
<wgt id='3088'>0.81194E+02</wgt>
<wgt id='3089'>0.82895E+02</wgt>
<wgt id='3090'>0.79612E+02</wgt>
<wgt id='3091'>0.79724E+02</wgt>
<wgt id='3092'>0.81858E+02</wgt>
<wgt id='3093'>0.81000E+02</wgt>
<wgt id='3094'>0.81616E+02</wgt>
<wgt id='3095'>0.78828E+02</wgt>
<wgt id='3096'>0.80801E+02</wgt>
<wgt id='3097'>0.85334E+02</wgt>
<wgt id='3098'>0.80567E+02</wgt>
<wgt id='3099'>0.78569E+02</wgt>
<wgt id='3100'>0.79496E+02</wgt>
<wgt id='3200'>0.78749E+02</wgt>
<wgt id='3201'>0.78123E+02</wgt>
<wgt id='3202'>0.76661E+02</wgt>
<wgt id='3203'>0.79236E+02</wgt>
<wgt id='3204'>0.78815E+02</wgt>
<wgt id='3205'>0.79441E+02</wgt>
<wgt id='3206'>0.79768E+02</wgt>
<wgt id='3207'>0.79283E+02</wgt>
<wgt id='3208'>0.78659E+02</wgt>
<wgt id='3209'>0.78873E+02</wgt>
<wgt id='3210'>0.78922E+02</wgt>
<wgt id='3211'>0.78863E+02</wgt>
<wgt id='3212'>0.78654E+02</wgt>
<wgt id='3213'>0.79575E+02</wgt>
<wgt id='3214'>0.78475E+02</wgt>
<wgt id='3215'>0.78474E+02</wgt>
<wgt id='3216'>0.79372E+02</wgt>
<wgt id='3217'>0.79113E+02</wgt>
<wgt id='3218'>0.79858E+02</wgt>
<wgt id='3219'>0.78166E+02</wgt>
<wgt id='3220'>0.77693E+02</wgt>
<wgt id='3221'>0.78616E+02</wgt>
<wgt id='3222'>0.79500E+02</wgt>
<wgt id='3223'>0.78925E+02</wgt>
<wgt id='3224'>0.78471E+02</wgt>
<wgt id='3225'>0.79289E+02</wgt>
<wgt id='3226'>0.78035E+02</wgt>
<wgt id='3227'>0.77938E+02</wgt>
<wgt id='3228'>0.78359E+02</wgt>
<wgt id='3229'>0.79770E+02</wgt>
<wgt id='3230'>0.79096E+02</wgt>
<wgt id='3231'>0.79186E+02</wgt>
<wgt id='3232'>0.79131E+02</wgt>
<wgt id='3233'>0.78940E+02</wgt>
<wgt id='3234'>0.77403E+02</wgt>
<wgt id='3235'>0.78599E+02</wgt>
<wgt id='3236'>0.79713E+02</wgt>
<wgt id='3237'>0.78826E+02</wgt>
<wgt id='3238'>0.78835E+02</wgt>
<wgt id='3239'>0.77408E+02</wgt>
<wgt id='3240'>0.77315E+02</wgt>
<wgt id='3241'>0.79566E+02</wgt>
<wgt id='3242'>0.79309E+02</wgt>
<wgt id='3243'>0.79259E+02</wgt>
<wgt id='3244'>0.79475E+02</wgt>
<wgt id='3245'>0.79660E+02</wgt>
<wgt id='3246'>0.77465E+02</wgt>
<wgt id='3247'>0.77259E+02</wgt>
<wgt id='3248'>0.78714E+02</wgt>
<wgt id='3249'>0.77721E+02</wgt>
<wgt id='3250'>0.77902E+02</wgt>
<wgt id='3251'>0.78462E+02</wgt>
<wgt id='3252'>0.80031E+02</wgt>
<wgt id='3253'>0.79428E+02</wgt>
<wgt id='3254'>0.78251E+02</wgt>
<wgt id='3255'>0.77481E+02</wgt>
<wgt id='3256'>0.78512E+02</wgt>
<wgt id='3257'>0.78251E+02</wgt>
<wgt id='3258'>0.77898E+02</wgt>
<wgt id='3259'>0.77832E+02</wgt>
<wgt id='3260'>0.79003E+02</wgt>
<wgt id='3261'>0.78038E+02</wgt>
<wgt id='3262'>0.80124E+02</wgt>
<wgt id='3263'>0.78697E+02</wgt>
<wgt id='3264'>0.79249E+02</wgt>
<wgt id='3265'>0.79599E+02</wgt>
<wgt id='3266'>0.78826E+02</wgt>
<wgt id='3267'>0.79042E+02</wgt>
<wgt id='3268'>0.77543E+02</wgt>
<wgt id='3269'>0.78308E+02</wgt>
<wgt id='3270'>0.80404E+02</wgt>
<wgt id='3271'>0.78515E+02</wgt>
<wgt id='3272'>0.78920E+02</wgt>
<wgt id='3273'>0.79065E+02</wgt>
<wgt id='3274'>0.78710E+02</wgt>
<wgt id='3275'>0.79731E+02</wgt>
<wgt id='3276'>0.77907E+02</wgt>
<wgt id='3277'>0.78094E+02</wgt>
<wgt id='3278'>0.79957E+02</wgt>
<wgt id='3279'>0.78996E+02</wgt>
<wgt id='3280'>0.78686E+02</wgt>
<wgt id='3281'>0.80035E+02</wgt>
<wgt id='3282'>0.78987E+02</wgt>
<wgt id='3283'>0.79456E+02</wgt>
<wgt id='3284'>0.77729E+02</wgt>
<wgt id='3285'>0.79011E+02</wgt>
<wgt id='3286'>0.77666E+02</wgt>
<wgt id='3287'>0.80831E+02</wgt>
<wgt id='3288'>0.77512E+02</wgt>
<wgt id='3289'>0.79697E+02</wgt>
<wgt id='3290'>0.77929E+02</wgt>
<wgt id='3291'>0.78133E+02</wgt>
<wgt id='3292'>0.77660E+02</wgt>
<wgt id='3293'>0.78590E+02</wgt>
<wgt id='3294'>0.78965E+02</wgt>
<wgt id='3295'>0.77943E+02</wgt>
<wgt id='3296'>0.79575E+02</wgt>
<wgt id='3297'>0.79041E+02</wgt>
<wgt id='3298'>0.77570E+02</wgt>
<wgt id='3299'>0.79165E+02</wgt>
<wgt id='3300'>0.80079E+02</wgt>
<wgt id='3301'>0.77017E+02</wgt>
<wgt id='3302'>0.79791E+02</wgt>
<wgt id='3400'>0.78326E+02</wgt>
<wgt id='3401'>0.79135E+02</wgt>
<wgt id='3402'>0.76753E+02</wgt>
<wgt id='3403'>0.79020E+02</wgt>
<wgt id='3404'>0.79497E+02</wgt>
<wgt id='3405'>0.79090E+02</wgt>
<wgt id='3406'>0.79286E+02</wgt>
<wgt id='3407'>0.78034E+02</wgt>
<wgt id='3408'>0.78893E+02</wgt>
<wgt id='3409'>0.78497E+02</wgt>
<wgt id='3410'>0.79208E+02</wgt>
<wgt id='3411'>0.79521E+02</wgt>
<wgt id='3412'>0.79025E+02</wgt>
<wgt id='3413'>0.77901E+02</wgt>
<wgt id='3414'>0.78139E+02</wgt>
<wgt id='3415'>0.78686E+02</wgt>
<wgt id='3416'>0.78251E+02</wgt>
<wgt id='3417'>0.78805E+02</wgt>
<wgt id='3418'>0.77896E+02</wgt>
<wgt id='3419'>0.77845E+02</wgt>
<wgt id='3420'>0.78155E+02</wgt>
<wgt id='3421'>0.77863E+02</wgt>
<wgt id='3422'>0.77594E+02</wgt>
<wgt id='3423'>0.80268E+02</wgt>
<wgt id='3424'>0.78491E+02</wgt>
<wgt id='3425'>0.77545E+02</wgt>
<wgt id='3426'>0.77857E+02</wgt>
<wgt id='3427'>0.77154E+02</wgt>
<wgt id='3428'>0.77948E+02</wgt>
<wgt id='3429'>0.77333E+02</wgt>
<wgt id='3430'>0.77835E+02</wgt>
<wgt id='3431'>0.78778E+02</wgt>
<wgt id='3432'>0.79385E+02</wgt>
<wgt id='3433'>0.78021E+02</wgt>
<wgt id='3434'>0.79957E+02</wgt>
<wgt id='3435'>0.79716E+02</wgt>
<wgt id='3436'>0.78483E+02</wgt>
<wgt id='3437'>0.79600E+02</wgt>
<wgt id='3438'>0.77782E+02</wgt>
<wgt id='3439'>0.76480E+02</wgt>
<wgt id='3440'>0.78993E+02</wgt>
<wgt id='3441'>0.78939E+02</wgt>
<wgt id='3442'>0.78157E+02</wgt>
<wgt id='3443'>0.79091E+02</wgt>
<wgt id='3444'>0.77402E+02</wgt>
<wgt id='3445'>0.77325E+02</wgt>
<wgt id='3446'>0.79113E+02</wgt>
<wgt id='3447'>0.78529E+02</wgt>
<wgt id='3448'>0.79402E+02</wgt>
<wgt id='3449'>0.78589E+02</wgt>
<wgt id='3450'>0.77541E+02</wgt>
<wgt id='3451'>0.79007E+02</wgt>
<wgt id='3452'>0.77829E+02</wgt>
<wgt id='3453'>0.76645E+02</wgt>
<wgt id='3454'>0.78221E+02</wgt>
<wgt id='3455'>0.79406E+02</wgt>
<wgt id='3456'>0.78407E+02</wgt>
<wgt id='3457'>0.78314E+02</wgt>
<wgt id='3458'>0.77693E+02</wgt>
<wgt id='3459'>0.78412E+02</wgt>
<wgt id='3460'>0.78030E+02</wgt>
<wgt id='3461'>0.77560E+02</wgt>
<wgt id='3462'>0.78677E+02</wgt>
<wgt id='3463'>0.77341E+02</wgt>
<wgt id='3464'>0.78033E+02</wgt>
<wgt id='3465'>0.78844E+02</wgt>
<wgt id='3466'>0.79297E+02</wgt>
<wgt id='3467'>0.77773E+02</wgt>
<wgt id='3468'>0.77741E+02</wgt>
<wgt id='3469'>0.76913E+02</wgt>
<wgt id='3470'>0.77552E+02</wgt>
<wgt id='3471'>0.77592E+02</wgt>
<wgt id='3472'>0.76452E+02</wgt>
<wgt id='3473'>0.80319E+02</wgt>
<wgt id='3474'>0.77463E+02</wgt>
<wgt id='3475'>0.78737E+02</wgt>
<wgt id='3476'>0.78297E+02</wgt>
<wgt id='3477'>0.76774E+02</wgt>
<wgt id='3478'>0.79425E+02</wgt>
<wgt id='3479'>0.77876E+02</wgt>
<wgt id='3480'>0.78546E+02</wgt>
<wgt id='3481'>0.79375E+02</wgt>
<wgt id='3482'>0.78531E+02</wgt>
<wgt id='3483'>0.78124E+02</wgt>
<wgt id='3484'>0.77765E+02</wgt>
<wgt id='3485'>0.77510E+02</wgt>
<wgt id='3486'>0.76260E+02</wgt>
<wgt id='3487'>0.77153E+02</wgt>
<wgt id='3488'>0.77969E+02</wgt>
<wgt id='3489'>0.77170E+02</wgt>
<wgt id='3490'>0.79385E+02</wgt>
<wgt id='3491'>0.79844E+02</wgt>
<wgt id='3492'>0.78009E+02</wgt>
<wgt id='3493'>0.79928E+02</wgt>
<wgt id='3494'>0.76651E+02</wgt>
<wgt id='3495'>0.79832E+02</wgt>
<wgt id='3496'>0.77069E+02</wgt>
<wgt id='3497'>0.78080E+02</wgt>
<wgt id='3498'>0.79486E+02</wgt>
<wgt id='3499'>0.78227E+02</wgt>
<wgt id='3500'>0.80154E+02</wgt>
</rwgt>
</event>
<event>
     13 322200  8.11039E+01  4.41491E+01 -1.00000E+00  1.40129E-01
      21    -1     0     0   503   504  0.000000000E+00  0.000000000E+00  6.670854430E+02  6.670854430E+02  0.000000000E+00  0.00000E+00  9.000E+00
      21    -1     0     0   504   505  0.000000000E+00  0.000000000E+00 -5.396938730E+02  5.396938730E+02  0.000000000E+00  0.00000E+00  9.000E+00
       6     2     1     2   502     0  9.752842368E+01  4.205105703E+01 -2.240945390E+01  2.071548016E+02  1.764393476E+02  0.00000E+00  9.000E+00
      -6     2     1     2     0   505 -9.228100022E+01  1.785082310E+00 -4.015582285E+02  4.465005069E+02  1.720311665E+02  0.00000E+00  9.000E+00
      21     1     1     2   503   502 -5.247423464E+00 -4.383613934E+01  5.513592523E+02  5.531240075E+02  7.629394531E-06  0.00000E+00  9.000E+00
      24     2     3     3     0     0  8.207486014E+01  8.782837613E+01  1.884765833E+01  1.434199722E+02  7.592066826E+01  0.00000E+00  9.000E+00
       5     1     3     3   502     0  1.545356354E+01 -4.577731910E+01 -4.125711223E+01  6.373482941E+01  5.060000000E+00  0.00000E+00 -1.000E+00
     -24     2     4     4     0     0 -1.652417240E+01  4.670972969E+01 -2.868910129E+02  3.018232978E+02  7.959901181E+01  0.00000E+00  9.000E+00
      -5     1     4     4     0   505 -7.575682781E+01 -4.492464738E+01 -1.146672156E+02  1.446772091E+02  5.060000000E+00  0.00000E+00  1.000E+00
     -15     1     6     6     0     0  7.032843435E+01  5.614085303E+01 -1.972015537E+01  9.214079614E+01  1.777000000E+00  0.00000E+00  1.000E+00
      16     1     6     6     0     0  1.174642579E+01  3.168752310E+01  3.856781371E+01  5.127917602E+01  0.000000000E+00  0.00000E+00 -1.000E+00
      13     1     8     8     0     0 -2.549897271E+01  6.608776143E+01 -2.412246002E+02  2.514102399E+02  1.057000000E-01  0.00000E+00 -1.000E+00
     -14     1     8     8     0     0  8.974800306E+00 -1.937803175E+01 -4.566641274E+01  5.041305791E+01  0.000000000E+00  0.00000E+00  1.000E+00
#rwgt            1           1   754.20539890579255               10        5935           0
<rwgt>
<wgt id='1001'>0.81104E+02</wgt>
<wgt id='1002'>0.84450E+02</wgt>
<wgt id='1003'>0.77148E+02</wgt>
<wgt id='1004'>0.68349E+02</wgt>
<wgt id='1005'>0.70565E+02</wgt>
<wgt id='1006'>0.65676E+02</wgt>
<wgt id='1007'>0.97903E+02</wgt>
<wgt id='1008'>0.10300E+03</wgt>
<wgt id='1009'>0.91975E+02</wgt>
<wgt id='2000'>0.81104E+02</wgt>
<wgt id='2001'>0.81072E+02</wgt>
<wgt id='2002'>0.80927E+02</wgt>
<wgt id='2003'>0.81214E+02</wgt>
<wgt id='2004'>0.81280E+02</wgt>
<wgt id='2005'>0.81114E+02</wgt>
<wgt id='2006'>0.81254E+02</wgt>
<wgt id='2007'>0.81255E+02</wgt>
<wgt id='2008'>0.81401E+02</wgt>
<wgt id='2009'>0.80979E+02</wgt>
<wgt id='2010'>0.81047E+02</wgt>
<wgt id='2011'>0.80918E+02</wgt>
<wgt id='2012'>0.81173E+02</wgt>
<wgt id='2013'>0.81149E+02</wgt>
<wgt id='2014'>0.81267E+02</wgt>
<wgt id='2015'>0.81251E+02</wgt>
<wgt id='2016'>0.81119E+02</wgt>
<wgt id='2017'>0.81202E+02</wgt>
<wgt id='2018'>0.81128E+02</wgt>
<wgt id='2019'>0.80946E+02</wgt>
<wgt id='2020'>0.81141E+02</wgt>
<wgt id='2021'>0.80952E+02</wgt>
<wgt id='2022'>0.81243E+02</wgt>
<wgt id='2023'>0.81181E+02</wgt>
<wgt id='2024'>0.81005E+02</wgt>
<wgt id='2025'>0.80992E+02</wgt>
<wgt id='2026'>0.81026E+02</wgt>
<wgt id='2027'>0.80829E+02</wgt>
<wgt id='2028'>0.81136E+02</wgt>
<wgt id='2029'>0.80723E+02</wgt>
<wgt id='2030'>0.81092E+02</wgt>
<wgt id='2031'>0.80840E+02</wgt>
<wgt id='2032'>0.81199E+02</wgt>
<wgt id='2033'>0.80989E+02</wgt>
<wgt id='2034'>0.80967E+02</wgt>
<wgt id='2035'>0.81095E+02</wgt>
<wgt id='2036'>0.81294E+02</wgt>
<wgt id='2037'>0.81093E+02</wgt>
<wgt id='2038'>0.81061E+02</wgt>
<wgt id='2039'>0.81088E+02</wgt>
<wgt id='2040'>0.81070E+02</wgt>
<wgt id='2041'>0.81086E+02</wgt>
<wgt id='2042'>0.81175E+02</wgt>
<wgt id='2043'>0.81038E+02</wgt>
<wgt id='2044'>0.81158E+02</wgt>
<wgt id='2045'>0.81087E+02</wgt>
<wgt id='2046'>0.81119E+02</wgt>
<wgt id='2047'>0.81086E+02</wgt>
<wgt id='2048'>0.81074E+02</wgt>
<wgt id='2049'>0.81045E+02</wgt>
<wgt id='2050'>0.81083E+02</wgt>
<wgt id='2051'>0.81093E+02</wgt>
<wgt id='2052'>0.81157E+02</wgt>
<wgt id='2053'>0.81095E+02</wgt>
<wgt id='2054'>0.81101E+02</wgt>
<wgt id='2055'>0.81131E+02</wgt>
<wgt id='2056'>0.81048E+02</wgt>
<wgt id='2057'>0.81132E+02</wgt>
<wgt id='2058'>0.81107E+02</wgt>
<wgt id='2059'>0.81089E+02</wgt>
<wgt id='2060'>0.81098E+02</wgt>
<wgt id='2061'>0.81082E+02</wgt>
<wgt id='2062'>0.81159E+02</wgt>
<wgt id='2063'>0.81123E+02</wgt>
<wgt id='2064'>0.81113E+02</wgt>
<wgt id='2065'>0.81170E+02</wgt>
<wgt id='2066'>0.81104E+02</wgt>
<wgt id='2067'>0.81125E+02</wgt>
<wgt id='2068'>0.81131E+02</wgt>
<wgt id='2069'>0.81095E+02</wgt>
<wgt id='2070'>0.81111E+02</wgt>
<wgt id='2071'>0.81110E+02</wgt>
<wgt id='2072'>0.81103E+02</wgt>
<wgt id='2073'>0.81119E+02</wgt>
<wgt id='2074'>0.81088E+02</wgt>
<wgt id='2075'>0.81091E+02</wgt>
<wgt id='2076'>0.81078E+02</wgt>
<wgt id='2077'>0.81154E+02</wgt>
<wgt id='2078'>0.81106E+02</wgt>
<wgt id='2079'>0.81089E+02</wgt>
<wgt id='2080'>0.81122E+02</wgt>
<wgt id='2081'>0.81096E+02</wgt>
<wgt id='2082'>0.81112E+02</wgt>
<wgt id='2083'>0.81133E+02</wgt>
<wgt id='2084'>0.81106E+02</wgt>
<wgt id='2085'>0.81103E+02</wgt>
<wgt id='2086'>0.81092E+02</wgt>
<wgt id='2087'>0.81110E+02</wgt>
<wgt id='2088'>0.81096E+02</wgt>
<wgt id='2089'>0.81096E+02</wgt>
<wgt id='2090'>0.81117E+02</wgt>
<wgt id='2091'>0.81105E+02</wgt>
<wgt id='2092'>0.81130E+02</wgt>
<wgt id='2093'>0.81088E+02</wgt>
<wgt id='2094'>0.81106E+02</wgt>
<wgt id='2095'>0.81117E+02</wgt>
<wgt id='2096'>0.81093E+02</wgt>
<wgt id='2097'>0.81112E+02</wgt>
<wgt id='2098'>0.81100E+02</wgt>
<wgt id='2099'>0.81113E+02</wgt>
<wgt id='2100'>0.81104E+02</wgt>
<wgt id='2101'>0.78764E+02</wgt>
<wgt id='2102'>0.83517E+02</wgt>
<wgt id='2200'>0.81180E+02</wgt>
<wgt id='2201'>0.70133E+02</wgt>
<wgt id='2202'>0.72276E+02</wgt>
<wgt id='2203'>0.74452E+02</wgt>
<wgt id='2204'>0.76552E+02</wgt>
<wgt id='2205'>0.80120E+02</wgt>
<wgt id='2206'>0.82405E+02</wgt>
<wgt id='2207'>0.85592E+02</wgt>
<wgt id='2208'>0.87865E+02</wgt>
<wgt id='2300'>0.84854E+02</wgt>
<wgt id='2301'>0.84970E+02</wgt>
<wgt id='2302'>0.84735E+02</wgt>
<wgt id='2303'>0.84898E+02</wgt>
<wgt id='2304'>0.85090E+02</wgt>
<wgt id='2305'>0.84969E+02</wgt>
<wgt id='2306'>0.84819E+02</wgt>
<wgt id='2307'>0.84987E+02</wgt>
<wgt id='2308'>0.84784E+02</wgt>
<wgt id='2309'>0.85004E+02</wgt>
<wgt id='2310'>0.84713E+02</wgt>
<wgt id='2311'>0.84772E+02</wgt>
<wgt id='2312'>0.84991E+02</wgt>
<wgt id='2313'>0.84801E+02</wgt>
<wgt id='2314'>0.84928E+02</wgt>
<wgt id='2315'>0.84843E+02</wgt>
<wgt id='2316'>0.84864E+02</wgt>
<wgt id='2317'>0.84897E+02</wgt>
<wgt id='2318'>0.84931E+02</wgt>
<wgt id='2319'>0.84885E+02</wgt>
<wgt id='2320'>0.84908E+02</wgt>
<wgt id='2321'>0.84887E+02</wgt>
<wgt id='2322'>0.84855E+02</wgt>
<wgt id='2323'>0.84852E+02</wgt>
<wgt id='2324'>0.84856E+02</wgt>
<wgt id='2325'>0.84960E+02</wgt>
<wgt id='2326'>0.84788E+02</wgt>
<wgt id='2327'>0.84892E+02</wgt>
<wgt id='2328'>0.84746E+02</wgt>
<wgt id='2329'>0.84628E+02</wgt>
<wgt id='2330'>0.85326E+02</wgt>
<wgt id='2331'>0.85090E+02</wgt>
<wgt id='2332'>0.84869E+02</wgt>
<wgt id='2333'>0.85043E+02</wgt>
<wgt id='2334'>0.84845E+02</wgt>
<wgt id='2335'>0.85277E+02</wgt>
<wgt id='2336'>0.84968E+02</wgt>
<wgt id='2337'>0.84779E+02</wgt>
<wgt id='2338'>0.84875E+02</wgt>
<wgt id='2339'>0.84908E+02</wgt>
<wgt id='2340'>0.84691E+02</wgt>
<wgt id='2341'>0.84902E+02</wgt>
<wgt id='2342'>0.84789E+02</wgt>
<wgt id='2343'>0.84738E+02</wgt>
<wgt id='2344'>0.84900E+02</wgt>
<wgt id='2345'>0.84919E+02</wgt>
<wgt id='2346'>0.84971E+02</wgt>
<wgt id='2347'>0.84874E+02</wgt>
<wgt id='2348'>0.84830E+02</wgt>
<wgt id='2349'>0.84829E+02</wgt>
<wgt id='2350'>0.84762E+02</wgt>
<wgt id='2351'>0.84957E+02</wgt>
<wgt id='2352'>0.84790E+02</wgt>
<wgt id='2353'>0.84852E+02</wgt>
<wgt id='2354'>0.84885E+02</wgt>
<wgt id='2355'>0.84732E+02</wgt>
<wgt id='2356'>0.84875E+02</wgt>
<wgt id='2357'>0.84866E+02</wgt>
<wgt id='2358'>0.84774E+02</wgt>
<wgt id='2359'>0.84880E+02</wgt>
<wgt id='2360'>0.84899E+02</wgt>
<wgt id='2361'>0.84907E+02</wgt>
<wgt id='2362'>0.84893E+02</wgt>
<wgt id='2363'>0.84886E+02</wgt>
<wgt id='2364'>0.84822E+02</wgt>
<wgt id='2365'>0.84841E+02</wgt>
<wgt id='2366'>0.84882E+02</wgt>
<wgt id='2367'>0.84782E+02</wgt>
<wgt id='2368'>0.84886E+02</wgt>
<wgt id='2369'>0.84821E+02</wgt>
<wgt id='2370'>0.84853E+02</wgt>
<wgt id='2371'>0.84829E+02</wgt>
<wgt id='2372'>0.84871E+02</wgt>
<wgt id='2373'>0.84824E+02</wgt>
<wgt id='2374'>0.84875E+02</wgt>
<wgt id='2375'>0.84860E+02</wgt>
<wgt id='2376'>0.84846E+02</wgt>
<wgt id='2377'>0.84859E+02</wgt>
<wgt id='2378'>0.84874E+02</wgt>
<wgt id='2379'>0.84846E+02</wgt>
<wgt id='2380'>0.84840E+02</wgt>
<wgt id='2381'>0.84850E+02</wgt>
<wgt id='2382'>0.84849E+02</wgt>
<wgt id='2383'>0.84846E+02</wgt>
<wgt id='2384'>0.84835E+02</wgt>
<wgt id='2385'>0.84873E+02</wgt>
<wgt id='2386'>0.84849E+02</wgt>
<wgt id='2387'>0.84841E+02</wgt>
<wgt id='2388'>0.84842E+02</wgt>
<wgt id='2389'>0.84855E+02</wgt>
<wgt id='2390'>0.84869E+02</wgt>
<wgt id='2391'>0.84854E+02</wgt>
<wgt id='2392'>0.84842E+02</wgt>
<wgt id='2393'>0.84862E+02</wgt>
<wgt id='2394'>0.84871E+02</wgt>
<wgt id='2395'>0.84854E+02</wgt>
<wgt id='2396'>0.84836E+02</wgt>
<wgt id='2397'>0.84838E+02</wgt>
<wgt id='2398'>0.84834E+02</wgt>
<wgt id='2399'>0.84861E+02</wgt>
<wgt id='2400'>0.84862E+02</wgt>
<wgt id='2401'>0.82380E+02</wgt>
<wgt id='2402'>0.87213E+02</wgt>
<wgt id='2500'>0.81742E+02</wgt>
<wgt id='2501'>0.86755E+02</wgt>
<wgt id='2600'>0.78713E+02</wgt>
<wgt id='2601'>0.78635E+02</wgt>
<wgt id='2602'>0.78735E+02</wgt>
<wgt id='2603'>0.78679E+02</wgt>
<wgt id='2604'>0.78805E+02</wgt>
<wgt id='2605'>0.78612E+02</wgt>
<wgt id='2606'>0.78592E+02</wgt>
<wgt id='2607'>0.78823E+02</wgt>
<wgt id='2608'>0.78691E+02</wgt>
<wgt id='2609'>0.78651E+02</wgt>
<wgt id='2610'>0.78664E+02</wgt>
<wgt id='2611'>0.78658E+02</wgt>
<wgt id='2612'>0.78923E+02</wgt>
<wgt id='2613'>0.78681E+02</wgt>
<wgt id='2614'>0.78675E+02</wgt>
<wgt id='2615'>0.78550E+02</wgt>
<wgt id='2616'>0.78699E+02</wgt>
<wgt id='2617'>0.78556E+02</wgt>
<wgt id='2618'>0.78545E+02</wgt>
<wgt id='2619'>0.78770E+02</wgt>
<wgt id='2620'>0.78698E+02</wgt>
<wgt id='2621'>0.78717E+02</wgt>
<wgt id='2622'>0.78899E+02</wgt>
<wgt id='2623'>0.78713E+02</wgt>
<wgt id='2624'>0.78716E+02</wgt>
<wgt id='2625'>0.78642E+02</wgt>
<wgt id='2626'>0.78696E+02</wgt>
<wgt id='2627'>0.78690E+02</wgt>
<wgt id='2628'>0.78730E+02</wgt>
<wgt id='2629'>0.78715E+02</wgt>
<wgt id='2630'>0.78726E+02</wgt>
<wgt id='2631'>0.78655E+02</wgt>
<wgt id='2632'>0.78738E+02</wgt>
<wgt id='2633'>0.78689E+02</wgt>
<wgt id='2634'>0.78685E+02</wgt>
<wgt id='2635'>0.78716E+02</wgt>
<wgt id='2636'>0.78694E+02</wgt>
<wgt id='2637'>0.78720E+02</wgt>
<wgt id='2638'>0.78747E+02</wgt>
<wgt id='2639'>0.78712E+02</wgt>
<wgt id='2640'>0.78712E+02</wgt>
<wgt id='2641'>0.78735E+02</wgt>
<wgt id='2642'>0.78727E+02</wgt>
<wgt id='2643'>0.78723E+02</wgt>
<wgt id='2644'>0.78706E+02</wgt>
<wgt id='2645'>0.78718E+02</wgt>
<wgt id='2646'>0.78716E+02</wgt>
<wgt id='2647'>0.78718E+02</wgt>
<wgt id='2648'>0.78714E+02</wgt>
<wgt id='2649'>0.78716E+02</wgt>
<wgt id='2650'>0.78712E+02</wgt>
<wgt id='2651'>0.77259E+02</wgt>
<wgt id='2652'>0.80058E+02</wgt>
<wgt id='2700'>0.75882E+02</wgt>
<wgt id='2701'>0.77259E+02</wgt>
<wgt id='2702'>0.78037E+02</wgt>
<wgt id='2703'>0.79318E+02</wgt>
<wgt id='2704'>0.80058E+02</wgt>
<wgt id='2705'>0.81336E+02</wgt>
<wgt id='2800'>0.80033E+02</wgt>
<wgt id='4000'>0.79929E+02</wgt>
<wgt id='4001'>0.80255E+02</wgt>
<wgt id='4002'>0.79820E+02</wgt>
<wgt id='4003'>0.80286E+02</wgt>
<wgt id='4004'>0.79448E+02</wgt>
<wgt id='4005'>0.79572E+02</wgt>
<wgt id='4006'>0.80253E+02</wgt>
<wgt id='4007'>0.80867E+02</wgt>
<wgt id='4008'>0.79005E+02</wgt>
<wgt id='4009'>0.80311E+02</wgt>
<wgt id='4010'>0.79591E+02</wgt>
<wgt id='4011'>0.80218E+02</wgt>
<wgt id='4012'>0.79627E+02</wgt>
<wgt id='4013'>0.80357E+02</wgt>
<wgt id='4014'>0.79565E+02</wgt>
<wgt id='4015'>0.79530E+02</wgt>
<wgt id='4016'>0.80226E+02</wgt>
<wgt id='4017'>0.79846E+02</wgt>
<wgt id='4018'>0.80048E+02</wgt>
<wgt id='4019'>0.80427E+02</wgt>
<wgt id='4020'>0.79160E+02</wgt>
<wgt id='4021'>0.79999E+02</wgt>
<wgt id='4022'>0.79784E+02</wgt>
<wgt id='4023'>0.79769E+02</wgt>
<wgt id='4024'>0.80131E+02</wgt>
<wgt id='4025'>0.80160E+02</wgt>
<wgt id='4026'>0.79371E+02</wgt>
<wgt id='4027'>0.79877E+02</wgt>
<wgt id='4028'>0.79984E+02</wgt>
<wgt id='4029'>0.79415E+02</wgt>
<wgt id='4030'>0.79784E+02</wgt>
<wgt id='4031'>0.79750E+02</wgt>
<wgt id='4032'>0.79918E+02</wgt>
<wgt id='4033'>0.79943E+02</wgt>
<wgt id='4034'>0.79681E+02</wgt>
<wgt id='4035'>0.80840E+02</wgt>
<wgt id='4036'>0.79200E+02</wgt>
<wgt id='4037'>0.81219E+02</wgt>
<wgt id='4038'>0.78889E+02</wgt>
<wgt id='4039'>0.81288E+02</wgt>
<wgt id='4040'>0.78528E+02</wgt>
<wgt id='4041'>0.79939E+02</wgt>
<wgt id='4042'>0.79823E+02</wgt>
<wgt id='4043'>0.79129E+02</wgt>
<wgt id='4044'>0.80030E+02</wgt>
<wgt id='4045'>0.81416E+02</wgt>
<wgt id='4046'>0.79202E+02</wgt>
<wgt id='4047'>0.79076E+02</wgt>
<wgt id='4048'>0.80267E+02</wgt>
<wgt id='4049'>0.79844E+02</wgt>
<wgt id='4050'>0.79959E+02</wgt>
<wgt id='4051'>0.81035E+02</wgt>
<wgt id='4052'>0.78922E+02</wgt>
<wgt id='4053'>0.80509E+02</wgt>
<wgt id='4054'>0.78968E+02</wgt>
<wgt id='4055'>0.80314E+02</wgt>
<wgt id='4056'>0.79490E+02</wgt>
<wgt id='4057'>0.79168E+02</wgt>
<wgt id='4058'>0.80446E+02</wgt>
<wgt id='4100'>0.80628E+02</wgt>
<wgt id='4101'>0.80293E+02</wgt>
<wgt id='4102'>0.79539E+02</wgt>
<wgt id='4103'>0.79127E+02</wgt>
<wgt id='4200'>0.77081E+02</wgt>
<wgt id='4201'>0.77166E+02</wgt>
<wgt id='4202'>0.77196E+02</wgt>
<wgt id='4203'>0.76496E+02</wgt>
<wgt id='4204'>0.77528E+02</wgt>
<wgt id='4205'>0.77031E+02</wgt>
<wgt id='4206'>0.77249E+02</wgt>
<wgt id='4207'>0.77021E+02</wgt>
<wgt id='4208'>0.77158E+02</wgt>
<wgt id='4209'>0.77168E+02</wgt>
<wgt id='4210'>0.77111E+02</wgt>
<wgt id='4211'>0.78054E+02</wgt>
<wgt id='4212'>0.76307E+02</wgt>
<wgt id='4213'>0.77259E+02</wgt>
<wgt id='4214'>0.76792E+02</wgt>
<wgt id='4215'>0.77148E+02</wgt>
<wgt id='4216'>0.76773E+02</wgt>
<wgt id='4217'>0.76740E+02</wgt>
<wgt id='4218'>0.77321E+02</wgt>
<wgt id='4219'>0.76085E+02</wgt>
<wgt id='4220'>0.77988E+02</wgt>
<wgt id='4221'>0.76449E+02</wgt>
<wgt id='4222'>0.77780E+02</wgt>
<wgt id='4223'>0.77478E+02</wgt>
<wgt id='4224'>0.76456E+02</wgt>
<wgt id='4225'>0.75696E+02</wgt>
<wgt id='4226'>0.78370E+02</wgt>
<wgt id='4227'>0.77583E+02</wgt>
<wgt id='4228'>0.76649E+02</wgt>
<wgt id='4229'>0.76398E+02</wgt>
<wgt id='4230'>0.77549E+02</wgt>
<wgt id='4231'>0.77061E+02</wgt>
<wgt id='4232'>0.77044E+02</wgt>
<wgt id='4233'>0.77297E+02</wgt>
<wgt id='4234'>0.76659E+02</wgt>
<wgt id='4235'>0.77518E+02</wgt>
<wgt id='4236'>0.76688E+02</wgt>
<wgt id='4237'>0.77305E+02</wgt>
<wgt id='4238'>0.76631E+02</wgt>
<wgt id='4239'>0.77592E+02</wgt>
<wgt id='4240'>0.75873E+02</wgt>
<wgt id='4241'>0.76730E+02</wgt>
<wgt id='4242'>0.77452E+02</wgt>
<wgt id='4243'>0.77078E+02</wgt>
<wgt id='4244'>0.77236E+02</wgt>
<wgt id='4245'>0.76323E+02</wgt>
<wgt id='4246'>0.77782E+02</wgt>
<wgt id='4247'>0.76755E+02</wgt>
<wgt id='4248'>0.77237E+02</wgt>
<wgt id='4249'>0.78195E+02</wgt>
<wgt id='4250'>0.75757E+02</wgt>
<wgt id='4251'>0.76333E+02</wgt>
<wgt id='4252'>0.77464E+02</wgt>
<wgt id='4253'>0.76705E+02</wgt>
<wgt id='4254'>0.77300E+02</wgt>
<wgt id='4255'>0.77459E+02</wgt>
<wgt id='4256'>0.76762E+02</wgt>
<wgt id='4257'>0.75647E+02</wgt>
<wgt id='4258'>0.77498E+02</wgt>
<wgt id='4300'>0.79118E+02</wgt>
<wgt id='4301'>0.78491E+02</wgt>
<wgt id='5000'>0.79935E+02</wgt>
<wgt id='5001'>0.79973E+02</wgt>
<wgt id='5002'>0.79885E+02</wgt>
<wgt id='5003'>0.79954E+02</wgt>
<wgt id='5004'>0.79918E+02</wgt>
<wgt id='5005'>0.79939E+02</wgt>
<wgt id='5006'>0.79927E+02</wgt>
<wgt id='5007'>0.80002E+02</wgt>
<wgt id='5008'>0.79880E+02</wgt>
<wgt id='5009'>0.80042E+02</wgt>
<wgt id='5010'>0.79824E+02</wgt>
<wgt id='5011'>0.80126E+02</wgt>
<wgt id='5012'>0.79751E+02</wgt>
<wgt id='5013'>0.80043E+02</wgt>
<wgt id='5014'>0.79858E+02</wgt>
<wgt id='5015'>0.79529E+02</wgt>
<wgt id='5016'>0.79529E+02</wgt>
<wgt id='5017'>0.80382E+02</wgt>
<wgt id='5018'>0.79633E+02</wgt>
<wgt id='5019'>0.80251E+02</wgt>
<wgt id='5020'>0.79502E+02</wgt>
<wgt id='5021'>0.80036E+02</wgt>
<wgt id='5022'>0.79776E+02</wgt>
<wgt id='5023'>0.79841E+02</wgt>
<wgt id='5024'>0.80160E+02</wgt>
<wgt id='5025'>0.79624E+02</wgt>
<wgt id='5026'>0.80284E+02</wgt>
<wgt id='5027'>0.79972E+02</wgt>
<wgt id='5028'>0.79834E+02</wgt>
<wgt id='5029'>0.80618E+02</wgt>
<wgt id='5030'>0.79547E+02</wgt>
<wgt id='5031'>0.79592E+02</wgt>
<wgt id='5032'>0.80972E+02</wgt>
<wgt id='5033'>0.79931E+02</wgt>
<wgt id='5034'>0.79939E+02</wgt>
<wgt id='5035'>0.79940E+02</wgt>
<wgt id='5036'>0.79930E+02</wgt>
<wgt id='5037'>0.79811E+02</wgt>
<wgt id='5038'>0.80005E+02</wgt>
<wgt id='5039'>0.80140E+02</wgt>
<wgt id='5040'>0.79430E+02</wgt>
<wgt id='5041'>0.80125E+02</wgt>
<wgt id='5042'>0.79745E+02</wgt>
<wgt id='5043'>0.80049E+02</wgt>
<wgt id='5044'>0.79879E+02</wgt>
<wgt id='5045'>0.79828E+02</wgt>
<wgt id='5046'>0.80083E+02</wgt>
<wgt id='5047'>0.79977E+02</wgt>
<wgt id='5048'>0.79748E+02</wgt>
<wgt id='5049'>0.79894E+02</wgt>
<wgt id='5050'>0.80027E+02</wgt>
<wgt id='5051'>0.80082E+02</wgt>
<wgt id='5052'>0.79808E+02</wgt>
<wgt id='5053'>0.79821E+02</wgt>
<wgt id='5054'>0.80099E+02</wgt>
<wgt id='5055'>0.80001E+02</wgt>
<wgt id='5056'>0.79954E+02</wgt>
<wgt id='5057'>0.79673E+02</wgt>
<wgt id='5058'>0.80118E+02</wgt>
<wgt id='5059'>0.79901E+02</wgt>
<wgt id='5060'>0.79964E+02</wgt>
<wgt id='5061'>0.80167E+02</wgt>
<wgt id='5062'>0.79995E+02</wgt>
<wgt id='5063'>0.80221E+02</wgt>
<wgt id='5064'>0.79902E+02</wgt>
<wgt id='5100'>0.79935E+02</wgt>
<wgt id='5101'>0.79951E+02</wgt>
<wgt id='6000'>0.79774E+02</wgt>
<wgt id='6001'>0.79816E+02</wgt>
<wgt id='6002'>0.79805E+02</wgt>
<wgt id='6003'>0.79677E+02</wgt>
<wgt id='6004'>0.79773E+02</wgt>
<wgt id='6005'>0.79567E+02</wgt>
<wgt id='6006'>0.79983E+02</wgt>
<wgt id='6007'>0.79602E+02</wgt>
<wgt id='6008'>0.79255E+02</wgt>
<wgt id='6009'>0.79924E+02</wgt>
<wgt id='6010'>0.78690E+02</wgt>
<wgt id='6011'>0.79744E+02</wgt>
<wgt id='6012'>0.80002E+02</wgt>
<wgt id='6013'>0.79512E+02</wgt>
<wgt id='6014'>0.79648E+02</wgt>
<wgt id='6015'>0.79292E+02</wgt>
<wgt id='6016'>0.79901E+02</wgt>
<wgt id='6017'>0.79682E+02</wgt>
<wgt id='6018'>0.79549E+02</wgt>
<wgt id='6019'>0.79788E+02</wgt>
<wgt id='6020'>0.79924E+02</wgt>
<wgt id='6021'>0.79768E+02</wgt>
<wgt id='6022'>0.79851E+02</wgt>
<wgt id='6023'>0.79774E+02</wgt>
<wgt id='6024'>0.79842E+02</wgt>
<wgt id='6025'>0.80025E+02</wgt>
<wgt id='6026'>0.79755E+02</wgt>
<wgt id='6027'>0.79780E+02</wgt>
<wgt id='6028'>0.79610E+02</wgt>
<wgt id='6029'>0.79670E+02</wgt>
<wgt id='6030'>0.79910E+02</wgt>
<wgt id='6031'>0.79603E+02</wgt>
<wgt id='6032'>0.79809E+02</wgt>
<wgt id='6033'>0.79688E+02</wgt>
<wgt id='6034'>0.79994E+02</wgt>
<wgt id='6035'>0.79821E+02</wgt>
<wgt id='6036'>0.80232E+02</wgt>
<wgt id='6037'>0.79778E+02</wgt>
<wgt id='6038'>0.79806E+02</wgt>
<wgt id='6039'>0.79898E+02</wgt>
<wgt id='6040'>0.79760E+02</wgt>
<wgt id='6041'>0.78534E+02</wgt>
<wgt id='6042'>0.80649E+02</wgt>
<wgt id='7000'>0.79582E+02</wgt>
<wgt id='7001'>0.79108E+02</wgt>
<wgt id='7002'>0.79279E+02</wgt>
<wgt id='7003'>0.79186E+02</wgt>
<wgt id='7004'>0.79201E+02</wgt>
<wgt id='7005'>0.79307E+02</wgt>
<wgt id='7006'>0.79080E+02</wgt>
<wgt id='7007'>0.79691E+02</wgt>
<wgt id='7008'>0.78710E+02</wgt>
<wgt id='7009'>0.78883E+02</wgt>
<wgt id='7010'>0.79515E+02</wgt>
<wgt id='7011'>0.79467E+02</wgt>
<wgt id='7012'>0.78924E+02</wgt>
<wgt id='7013'>0.79059E+02</wgt>
<wgt id='7014'>0.79321E+02</wgt>
<wgt id='7015'>0.79130E+02</wgt>
<wgt id='7016'>0.79049E+02</wgt>
<wgt id='7017'>0.79203E+02</wgt>
<wgt id='7018'>0.79185E+02</wgt>
<wgt id='7019'>0.79098E+02</wgt>
<wgt id='7020'>0.79298E+02</wgt>
<wgt id='7021'>0.79324E+02</wgt>
<wgt id='7022'>0.79039E+02</wgt>
<wgt id='7023'>0.78811E+02</wgt>
<wgt id='7024'>0.79583E+02</wgt>
<wgt id='7025'>0.78232E+02</wgt>
<wgt id='7026'>0.80066E+02</wgt>
<wgt id='7027'>0.78815E+02</wgt>
<wgt id='7028'>0.79633E+02</wgt>
<wgt id='8000'>0.80139E+02</wgt>
<wgt id='8001'>0.80128E+02</wgt>
<wgt id='8002'>0.80165E+02</wgt>
<wgt id='8003'>0.80142E+02</wgt>
<wgt id='8004'>0.80137E+02</wgt>
<wgt id='8005'>0.79979E+02</wgt>
<wgt id='8006'>0.80211E+02</wgt>
<wgt id='8007'>0.80274E+02</wgt>
<wgt id='8008'>0.80321E+02</wgt>
<wgt id='8009'>0.80485E+02</wgt>
<wgt id='8010'>0.80058E+02</wgt>
<wgt id='8011'>0.80150E+02</wgt>
<wgt id='8012'>0.79855E+02</wgt>
<wgt id='8013'>0.79989E+02</wgt>
<wgt id='8014'>0.80312E+02</wgt>
<wgt id='8015'>0.80090E+02</wgt>
<wgt id='8016'>0.80215E+02</wgt>
<wgt id='8017'>0.80186E+02</wgt>
<wgt id='8018'>0.80328E+02</wgt>
<wgt id='8019'>0.80197E+02</wgt>
<wgt id='8020'>0.80083E+02</wgt>
<wgt id='8021'>0.80075E+02</wgt>
<wgt id='8022'>0.80030E+02</wgt>
<wgt id='8023'>0.80063E+02</wgt>
<wgt id='8024'>0.79924E+02</wgt>
<wgt id='8025'>0.80122E+02</wgt>
<wgt id='8026'>0.80251E+02</wgt>
<wgt id='8027'>0.80173E+02</wgt>
<wgt id='8028'>0.80199E+02</wgt>
<wgt id='8029'>0.80073E+02</wgt>
<wgt id='3000'>0.81104E+02</wgt>
<wgt id='3001'>0.80824E+02</wgt>
<wgt id='3002'>0.79561E+02</wgt>
<wgt id='3003'>0.79386E+02</wgt>
<wgt id='3004'>0.81992E+02</wgt>
<wgt id='3005'>0.81516E+02</wgt>
<wgt id='3006'>0.83134E+02</wgt>
<wgt id='3007'>0.80675E+02</wgt>
<wgt id='3008'>0.80539E+02</wgt>
<wgt id='3009'>0.81193E+02</wgt>
<wgt id='3010'>0.82826E+02</wgt>
<wgt id='3011'>0.81475E+02</wgt>
<wgt id='3012'>0.81487E+02</wgt>
<wgt id='3013'>0.80567E+02</wgt>
<wgt id='3014'>0.80716E+02</wgt>
<wgt id='3015'>0.80798E+02</wgt>
<wgt id='3016'>0.81768E+02</wgt>
<wgt id='3017'>0.82806E+02</wgt>
<wgt id='3018'>0.80765E+02</wgt>
<wgt id='3019'>0.79717E+02</wgt>
<wgt id='3020'>0.80775E+02</wgt>
<wgt id='3021'>0.79551E+02</wgt>
<wgt id='3022'>0.79382E+02</wgt>
<wgt id='3023'>0.79746E+02</wgt>
<wgt id='3024'>0.80685E+02</wgt>
<wgt id='3025'>0.80084E+02</wgt>
<wgt id='3026'>0.80654E+02</wgt>
<wgt id='3027'>0.79746E+02</wgt>
<wgt id='3028'>0.80823E+02</wgt>
<wgt id='3029'>0.82359E+02</wgt>
<wgt id='3030'>0.82194E+02</wgt>
<wgt id='3031'>0.81219E+02</wgt>
<wgt id='3032'>0.82241E+02</wgt>
<wgt id='3033'>0.80391E+02</wgt>
<wgt id='3034'>0.81869E+02</wgt>
<wgt id='3035'>0.81646E+02</wgt>
<wgt id='3036'>0.81342E+02</wgt>
<wgt id='3037'>0.80258E+02</wgt>
<wgt id='3038'>0.80862E+02</wgt>
<wgt id='3039'>0.81037E+02</wgt>
<wgt id='3040'>0.81353E+02</wgt>
<wgt id='3041'>0.81746E+02</wgt>
<wgt id='3042'>0.81169E+02</wgt>
<wgt id='3043'>0.81442E+02</wgt>
<wgt id='3044'>0.81324E+02</wgt>
<wgt id='3045'>0.81506E+02</wgt>
<wgt id='3046'>0.81791E+02</wgt>
<wgt id='3047'>0.79652E+02</wgt>
<wgt id='3048'>0.80415E+02</wgt>
<wgt id='3049'>0.80545E+02</wgt>
<wgt id='3050'>0.81755E+02</wgt>
<wgt id='3051'>0.80914E+02</wgt>
<wgt id='3052'>0.80205E+02</wgt>
<wgt id='3053'>0.80814E+02</wgt>
<wgt id='3054'>0.80084E+02</wgt>
<wgt id='3055'>0.80464E+02</wgt>
<wgt id='3056'>0.81031E+02</wgt>
<wgt id='3057'>0.80353E+02</wgt>
<wgt id='3058'>0.80434E+02</wgt>
<wgt id='3059'>0.82567E+02</wgt>
<wgt id='3060'>0.81141E+02</wgt>
<wgt id='3061'>0.80612E+02</wgt>
<wgt id='3062'>0.80786E+02</wgt>
<wgt id='3063'>0.80125E+02</wgt>
<wgt id='3064'>0.81301E+02</wgt>
<wgt id='3065'>0.80514E+02</wgt>
<wgt id='3066'>0.81790E+02</wgt>
<wgt id='3067'>0.79623E+02</wgt>
<wgt id='3068'>0.81501E+02</wgt>
<wgt id='3069'>0.81191E+02</wgt>
<wgt id='3070'>0.80281E+02</wgt>
<wgt id='3071'>0.81748E+02</wgt>
<wgt id='3072'>0.79924E+02</wgt>
<wgt id='3073'>0.82051E+02</wgt>
<wgt id='3074'>0.81466E+02</wgt>
<wgt id='3075'>0.82369E+02</wgt>
<wgt id='3076'>0.82595E+02</wgt>
<wgt id='3077'>0.80974E+02</wgt>
<wgt id='3078'>0.80449E+02</wgt>
<wgt id='3079'>0.81143E+02</wgt>
<wgt id='3080'>0.81810E+02</wgt>
<wgt id='3081'>0.80246E+02</wgt>
<wgt id='3082'>0.81768E+02</wgt>
<wgt id='3083'>0.81488E+02</wgt>
<wgt id='3084'>0.81149E+02</wgt>
<wgt id='3085'>0.79558E+02</wgt>
<wgt id='3086'>0.80451E+02</wgt>
<wgt id='3087'>0.81371E+02</wgt>
<wgt id='3088'>0.82632E+02</wgt>
<wgt id='3089'>0.84478E+02</wgt>
<wgt id='3090'>0.81845E+02</wgt>
<wgt id='3091'>0.80907E+02</wgt>
<wgt id='3092'>0.82567E+02</wgt>
<wgt id='3093'>0.81856E+02</wgt>
<wgt id='3094'>0.81393E+02</wgt>
<wgt id='3095'>0.81561E+02</wgt>
<wgt id='3096'>0.80206E+02</wgt>
<wgt id='3097'>0.81379E+02</wgt>
<wgt id='3098'>0.82242E+02</wgt>
<wgt id='3099'>0.80480E+02</wgt>
<wgt id='3100'>0.80951E+02</wgt>
<wgt id='3200'>0.78740E+02</wgt>
<wgt id='3201'>0.79214E+02</wgt>
<wgt id='3202'>0.77596E+02</wgt>
<wgt id='3203'>0.78953E+02</wgt>
<wgt id='3204'>0.77925E+02</wgt>
<wgt id='3205'>0.79103E+02</wgt>
<wgt id='3206'>0.79479E+02</wgt>
<wgt id='3207'>0.79673E+02</wgt>
<wgt id='3208'>0.79377E+02</wgt>
<wgt id='3209'>0.78488E+02</wgt>
<wgt id='3210'>0.78707E+02</wgt>
<wgt id='3211'>0.79474E+02</wgt>
<wgt id='3212'>0.78221E+02</wgt>
<wgt id='3213'>0.78486E+02</wgt>
<wgt id='3214'>0.78102E+02</wgt>
<wgt id='3215'>0.78828E+02</wgt>
<wgt id='3216'>0.79510E+02</wgt>
<wgt id='3217'>0.79194E+02</wgt>
<wgt id='3218'>0.79092E+02</wgt>
<wgt id='3219'>0.78789E+02</wgt>
<wgt id='3220'>0.78114E+02</wgt>
<wgt id='3221'>0.79334E+02</wgt>
<wgt id='3222'>0.79726E+02</wgt>
<wgt id='3223'>0.79002E+02</wgt>
<wgt id='3224'>0.78512E+02</wgt>
<wgt id='3225'>0.79574E+02</wgt>
<wgt id='3226'>0.78617E+02</wgt>
<wgt id='3227'>0.77984E+02</wgt>
<wgt id='3228'>0.77950E+02</wgt>
<wgt id='3229'>0.79338E+02</wgt>
<wgt id='3230'>0.79238E+02</wgt>
<wgt id='3231'>0.78873E+02</wgt>
<wgt id='3232'>0.79063E+02</wgt>
<wgt id='3233'>0.79127E+02</wgt>
<wgt id='3234'>0.78445E+02</wgt>
<wgt id='3235'>0.78466E+02</wgt>
<wgt id='3236'>0.77960E+02</wgt>
<wgt id='3237'>0.78706E+02</wgt>
<wgt id='3238'>0.78189E+02</wgt>
<wgt id='3239'>0.78542E+02</wgt>
<wgt id='3240'>0.78291E+02</wgt>
<wgt id='3241'>0.79539E+02</wgt>
<wgt id='3242'>0.78070E+02</wgt>
<wgt id='3243'>0.78078E+02</wgt>
<wgt id='3244'>0.78442E+02</wgt>
<wgt id='3245'>0.79094E+02</wgt>
<wgt id='3246'>0.77651E+02</wgt>
<wgt id='3247'>0.78704E+02</wgt>
<wgt id='3248'>0.78273E+02</wgt>
<wgt id='3249'>0.78127E+02</wgt>
<wgt id='3250'>0.79257E+02</wgt>
<wgt id='3251'>0.78485E+02</wgt>
<wgt id='3252'>0.78944E+02</wgt>
<wgt id='3253'>0.78592E+02</wgt>
<wgt id='3254'>0.78652E+02</wgt>
<wgt id='3255'>0.78506E+02</wgt>
<wgt id='3256'>0.78581E+02</wgt>
<wgt id='3257'>0.78688E+02</wgt>
<wgt id='3258'>0.78843E+02</wgt>
<wgt id='3259'>0.78451E+02</wgt>
<wgt id='3260'>0.78714E+02</wgt>
<wgt id='3261'>0.78897E+02</wgt>
<wgt id='3262'>0.78599E+02</wgt>
<wgt id='3263'>0.79555E+02</wgt>
<wgt id='3264'>0.78832E+02</wgt>
<wgt id='3265'>0.79022E+02</wgt>
<wgt id='3266'>0.78706E+02</wgt>
<wgt id='3267'>0.78538E+02</wgt>
<wgt id='3268'>0.79099E+02</wgt>
<wgt id='3269'>0.78903E+02</wgt>
<wgt id='3270'>0.79328E+02</wgt>
<wgt id='3271'>0.79045E+02</wgt>
<wgt id='3272'>0.79146E+02</wgt>
<wgt id='3273'>0.78599E+02</wgt>
<wgt id='3274'>0.78543E+02</wgt>
<wgt id='3275'>0.79039E+02</wgt>
<wgt id='3276'>0.78303E+02</wgt>
<wgt id='3277'>0.78557E+02</wgt>
<wgt id='3278'>0.78689E+02</wgt>
<wgt id='3279'>0.79284E+02</wgt>
<wgt id='3280'>0.78477E+02</wgt>
<wgt id='3281'>0.78886E+02</wgt>
<wgt id='3282'>0.78933E+02</wgt>
<wgt id='3283'>0.78909E+02</wgt>
<wgt id='3284'>0.78786E+02</wgt>
<wgt id='3285'>0.78206E+02</wgt>
<wgt id='3286'>0.78253E+02</wgt>
<wgt id='3287'>0.78644E+02</wgt>
<wgt id='3288'>0.79079E+02</wgt>
<wgt id='3289'>0.79947E+02</wgt>
<wgt id='3290'>0.79207E+02</wgt>
<wgt id='3291'>0.77445E+02</wgt>
<wgt id='3292'>0.78389E+02</wgt>
<wgt id='3293'>0.78577E+02</wgt>
<wgt id='3294'>0.77686E+02</wgt>
<wgt id='3295'>0.78436E+02</wgt>
<wgt id='3296'>0.79753E+02</wgt>
<wgt id='3297'>0.78612E+02</wgt>
<wgt id='3298'>0.78405E+02</wgt>
<wgt id='3299'>0.78542E+02</wgt>
<wgt id='3300'>0.79152E+02</wgt>
<wgt id='3301'>0.77259E+02</wgt>
<wgt id='3302'>0.80058E+02</wgt>
<wgt id='3400'>0.78460E+02</wgt>
<wgt id='3401'>0.78416E+02</wgt>
<wgt id='3402'>0.77537E+02</wgt>
<wgt id='3403'>0.79345E+02</wgt>
<wgt id='3404'>0.79835E+02</wgt>
<wgt id='3405'>0.79062E+02</wgt>
<wgt id='3406'>0.79021E+02</wgt>
<wgt id='3407'>0.78150E+02</wgt>
<wgt id='3408'>0.79791E+02</wgt>
<wgt id='3409'>0.79464E+02</wgt>
<wgt id='3410'>0.78640E+02</wgt>
<wgt id='3411'>0.79363E+02</wgt>
<wgt id='3412'>0.79255E+02</wgt>
<wgt id='3413'>0.78400E+02</wgt>
<wgt id='3414'>0.77965E+02</wgt>
<wgt id='3415'>0.78237E+02</wgt>
<wgt id='3416'>0.77836E+02</wgt>
<wgt id='3417'>0.78722E+02</wgt>
<wgt id='3418'>0.77742E+02</wgt>
<wgt id='3419'>0.77887E+02</wgt>
<wgt id='3420'>0.78440E+02</wgt>
<wgt id='3421'>0.78440E+02</wgt>
<wgt id='3422'>0.78950E+02</wgt>
<wgt id='3423'>0.78992E+02</wgt>
<wgt id='3424'>0.78999E+02</wgt>
<wgt id='3425'>0.78242E+02</wgt>
<wgt id='3426'>0.78441E+02</wgt>
<wgt id='3427'>0.78257E+02</wgt>
<wgt id='3428'>0.79417E+02</wgt>
<wgt id='3429'>0.77754E+02</wgt>
<wgt id='3430'>0.78810E+02</wgt>
<wgt id='3431'>0.78591E+02</wgt>
<wgt id='3432'>0.78719E+02</wgt>
<wgt id='3433'>0.77405E+02</wgt>
<wgt id='3434'>0.78690E+02</wgt>
<wgt id='3435'>0.78766E+02</wgt>
<wgt id='3436'>0.78332E+02</wgt>
<wgt id='3437'>0.78738E+02</wgt>
<wgt id='3438'>0.77693E+02</wgt>
<wgt id='3439'>0.78492E+02</wgt>
<wgt id='3440'>0.78528E+02</wgt>
<wgt id='3441'>0.78268E+02</wgt>
<wgt id='3442'>0.77021E+02</wgt>
<wgt id='3443'>0.78492E+02</wgt>
<wgt id='3444'>0.78122E+02</wgt>
<wgt id='3445'>0.78199E+02</wgt>
<wgt id='3446'>0.78749E+02</wgt>
<wgt id='3447'>0.79291E+02</wgt>
<wgt id='3448'>0.79444E+02</wgt>
<wgt id='3449'>0.79158E+02</wgt>
<wgt id='3450'>0.78393E+02</wgt>
<wgt id='3451'>0.79423E+02</wgt>
<wgt id='3452'>0.78193E+02</wgt>
<wgt id='3453'>0.77603E+02</wgt>
<wgt id='3454'>0.77876E+02</wgt>
<wgt id='3455'>0.79221E+02</wgt>
<wgt id='3456'>0.78726E+02</wgt>
<wgt id='3457'>0.79351E+02</wgt>
<wgt id='3458'>0.78471E+02</wgt>
<wgt id='3459'>0.78314E+02</wgt>
<wgt id='3460'>0.78250E+02</wgt>
<wgt id='3461'>0.77652E+02</wgt>
<wgt id='3462'>0.78195E+02</wgt>
<wgt id='3463'>0.77519E+02</wgt>
<wgt id='3464'>0.78998E+02</wgt>
<wgt id='3465'>0.78608E+02</wgt>
<wgt id='3466'>0.78774E+02</wgt>
<wgt id='3467'>0.78197E+02</wgt>
<wgt id='3468'>0.77658E+02</wgt>
<wgt id='3469'>0.78329E+02</wgt>
<wgt id='3470'>0.78336E+02</wgt>
<wgt id='3471'>0.78290E+02</wgt>
<wgt id='3472'>0.77717E+02</wgt>
<wgt id='3473'>0.79074E+02</wgt>
<wgt id='3474'>0.78233E+02</wgt>
<wgt id='3475'>0.78562E+02</wgt>
<wgt id='3476'>0.78525E+02</wgt>
<wgt id='3477'>0.77855E+02</wgt>
<wgt id='3478'>0.79133E+02</wgt>
<wgt id='3479'>0.79040E+02</wgt>
<wgt id='3480'>0.78283E+02</wgt>
<wgt id='3481'>0.78815E+02</wgt>
<wgt id='3482'>0.78427E+02</wgt>
<wgt id='3483'>0.77547E+02</wgt>
<wgt id='3484'>0.78071E+02</wgt>
<wgt id='3485'>0.78148E+02</wgt>
<wgt id='3486'>0.76912E+02</wgt>
<wgt id='3487'>0.78654E+02</wgt>
<wgt id='3488'>0.79066E+02</wgt>
<wgt id='3489'>0.77610E+02</wgt>
<wgt id='3490'>0.78941E+02</wgt>
<wgt id='3491'>0.78903E+02</wgt>
<wgt id='3492'>0.78560E+02</wgt>
<wgt id='3493'>0.78362E+02</wgt>
<wgt id='3494'>0.76461E+02</wgt>
<wgt id='3495'>0.78561E+02</wgt>
<wgt id='3496'>0.77525E+02</wgt>
<wgt id='3497'>0.77954E+02</wgt>
<wgt id='3498'>0.79014E+02</wgt>
<wgt id='3499'>0.78286E+02</wgt>
<wgt id='3500'>0.79272E+02</wgt>
</rwgt>
</event>
<event>
     13 322200  8.11039E+01  5.98735E+01 -1.00000E+00  1.32869E-01
      21    -1     0     0   504   505  0.000000000E+00  0.000000000E+00  1.025837593E+03  1.025837593E+03  0.000000000E+00  0.00000E+00  9.000E+00
      21    -1     0     0   502   503  0.000000000E+00  0.000000000E+00 -6.869742675E+01  6.869742675E+01  0.000000000E+00  0.00000E+00  9.000E+00
       6     2     1     2   502     0  5.103261229E+01  5.609304353E+01  2.409900386E+02  3.058116160E+02  1.723188577E+02  0.00000E+00  9.000E+00
      -6     2     1     2     0   505  7.453202873E+00 -6.890871361E+01  2.166711548E+02  2.856686590E+02  1.727895609E+02  0.00000E+00  9.000E+00
      21     1     1     2   504   503 -5.848581516E+01  1.281567008E+01  4.994789731E+02  5.030547451E+02  0.000000000E+00  0.00000E+00  9.000E+00
      24     2     3     3     0     0  5.834077892E+01 -7.197853705E+00  7.287883052E+01  1.259613203E+02  8.425838051E+01  0.00000E+00  9.000E+00
       5     1     3     3   502     0 -7.308166633E+00  6.329089723E+01  1.681112081E+02  1.798502957E+02  5.060000000E+00  0.00000E+00 -1.000E+00
     -24     2     4     4     0     0  2.110765440E+01 -8.199236230E+01  6.724655120E+01  1.349671604E+02  8.078214647E+01  0.00000E+00  9.000E+00
      -5     1     4     4     0   505 -1.365445153E+01  1.308364869E+01  1.494246036E+02  1.507014986E+02  5.060000000E+00  0.00000E+00  1.000E+00
     -13     1     6     6     0     0  6.240424403E+01 -2.678572687E+01  7.980767102E+01  1.047904593E+02  1.057000000E-01  0.00000E+00  1.000E+00
      14     1     6     6     0     0 -4.063465113E+00  1.958787316E+01 -6.928840497E+00  2.117086097E+01  0.000000000E+00  0.00000E+00 -1.000E+00
      11     1     8     8     0     0  1.672791855E+01 -1.654907389E+01 -1.639235213E+01  2.867759254E+01  5.100000000E-04  0.00000E+00 -1.000E+00
     -12     1     8     8     0     0  4.379735851E+00 -6.544328841E+01  8.363890333E+01  1.062895679E+02  0.000000000E+00  0.00000E+00  1.000E+00
#rwgt            1           1   1062.1492564328623               10        6542           0
<rwgt>
<wgt id='1001'>0.81104E+02</wgt>
<wgt id='1002'>0.95613E+02</wgt>
<wgt id='1003'>0.65623E+02</wgt>
<wgt id='1004'>0.69849E+02</wgt>
<wgt id='1005'>0.80659E+02</wgt>
<wgt id='1006'>0.58267E+02</wgt>
<wgt id='1007'>0.95273E+02</wgt>
<wgt id='1008'>0.11527E+03</wgt>
<wgt id='1009'>0.74019E+02</wgt>
<wgt id='2000'>0.81104E+02</wgt>
<wgt id='2001'>0.81043E+02</wgt>
<wgt id='2002'>0.80979E+02</wgt>
<wgt id='2003'>0.81346E+02</wgt>
<wgt id='2004'>0.81253E+02</wgt>
<wgt id='2005'>0.81118E+02</wgt>
<wgt id='2006'>0.81279E+02</wgt>
<wgt id='2007'>0.81290E+02</wgt>
<wgt id='2008'>0.81360E+02</wgt>
<wgt id='2009'>0.81013E+02</wgt>
<wgt id='2010'>0.81087E+02</wgt>
<wgt id='2011'>0.80993E+02</wgt>
<wgt id='2012'>0.81112E+02</wgt>
<wgt id='2013'>0.81087E+02</wgt>
<wgt id='2014'>0.81188E+02</wgt>
<wgt id='2015'>0.81201E+02</wgt>
<wgt id='2016'>0.81029E+02</wgt>
<wgt id='2017'>0.81193E+02</wgt>
<wgt id='2018'>0.81148E+02</wgt>
<wgt id='2019'>0.80852E+02</wgt>
<wgt id='2020'>0.81215E+02</wgt>
<wgt id='2021'>0.80943E+02</wgt>
<wgt id='2022'>0.81232E+02</wgt>
<wgt id='2023'>0.81130E+02</wgt>
<wgt id='2024'>0.81031E+02</wgt>
<wgt id='2025'>0.80998E+02</wgt>
<wgt id='2026'>0.80996E+02</wgt>
<wgt id='2027'>0.80818E+02</wgt>
<wgt id='2028'>0.81140E+02</wgt>
<wgt id='2029'>0.80725E+02</wgt>
<wgt id='2030'>0.81102E+02</wgt>
<wgt id='2031'>0.80844E+02</wgt>
<wgt id='2032'>0.81211E+02</wgt>
<wgt id='2033'>0.80984E+02</wgt>
<wgt id='2034'>0.80971E+02</wgt>
<wgt id='2035'>0.81074E+02</wgt>
<wgt id='2036'>0.81276E+02</wgt>
<wgt id='2037'>0.81108E+02</wgt>
<wgt id='2038'>0.81059E+02</wgt>
<wgt id='2039'>0.81100E+02</wgt>
<wgt id='2040'>0.81072E+02</wgt>
<wgt id='2041'>0.81090E+02</wgt>
<wgt id='2042'>0.81173E+02</wgt>
<wgt id='2043'>0.81035E+02</wgt>
<wgt id='2044'>0.81168E+02</wgt>
<wgt id='2045'>0.81088E+02</wgt>
<wgt id='2046'>0.81114E+02</wgt>
<wgt id='2047'>0.81098E+02</wgt>
<wgt id='2048'>0.81078E+02</wgt>
<wgt id='2049'>0.81040E+02</wgt>
<wgt id='2050'>0.81087E+02</wgt>
<wgt id='2051'>0.81089E+02</wgt>
<wgt id='2052'>0.81157E+02</wgt>
<wgt id='2053'>0.81093E+02</wgt>
<wgt id='2054'>0.81100E+02</wgt>
<wgt id='2055'>0.81129E+02</wgt>
<wgt id='2056'>0.81056E+02</wgt>
<wgt id='2057'>0.81131E+02</wgt>
<wgt id='2058'>0.81111E+02</wgt>
<wgt id='2059'>0.81093E+02</wgt>
<wgt id='2060'>0.81106E+02</wgt>
<wgt id='2061'>0.81094E+02</wgt>
<wgt id='2062'>0.81159E+02</wgt>
<wgt id='2063'>0.81121E+02</wgt>
<wgt id='2064'>0.81117E+02</wgt>
<wgt id='2065'>0.81170E+02</wgt>
<wgt id='2066'>0.81101E+02</wgt>
<wgt id='2067'>0.81123E+02</wgt>
<wgt id='2068'>0.81117E+02</wgt>
<wgt id='2069'>0.81109E+02</wgt>
<wgt id='2070'>0.81111E+02</wgt>
<wgt id='2071'>0.81102E+02</wgt>
<wgt id='2072'>0.81103E+02</wgt>
<wgt id='2073'>0.81115E+02</wgt>
<wgt id='2074'>0.81097E+02</wgt>
<wgt id='2075'>0.81085E+02</wgt>
<wgt id='2076'>0.81091E+02</wgt>
<wgt id='2077'>0.81148E+02</wgt>
<wgt id='2078'>0.81113E+02</wgt>
<wgt id='2079'>0.81088E+02</wgt>
<wgt id='2080'>0.81115E+02</wgt>
<wgt id='2081'>0.81095E+02</wgt>
<wgt id='2082'>0.81114E+02</wgt>
<wgt id='2083'>0.81133E+02</wgt>
<wgt id='2084'>0.81111E+02</wgt>
<wgt id='2085'>0.81105E+02</wgt>
<wgt id='2086'>0.81090E+02</wgt>
<wgt id='2087'>0.81115E+02</wgt>
<wgt id='2088'>0.81099E+02</wgt>
<wgt id='2089'>0.81095E+02</wgt>
<wgt id='2090'>0.81117E+02</wgt>
<wgt id='2091'>0.81103E+02</wgt>
<wgt id='2092'>0.81121E+02</wgt>
<wgt id='2093'>0.81089E+02</wgt>
<wgt id='2094'>0.81104E+02</wgt>
<wgt id='2095'>0.81118E+02</wgt>
<wgt id='2096'>0.81094E+02</wgt>
<wgt id='2097'>0.81112E+02</wgt>
<wgt id='2098'>0.81102E+02</wgt>
<wgt id='2099'>0.81115E+02</wgt>
<wgt id='2100'>0.81104E+02</wgt>
<wgt id='2101'>0.78883E+02</wgt>
<wgt id='2102'>0.83368E+02</wgt>
<wgt id='2200'>0.81173E+02</wgt>
<wgt id='2201'>0.70692E+02</wgt>
<wgt id='2202'>0.72725E+02</wgt>
<wgt id='2203'>0.74671E+02</wgt>
<wgt id='2204'>0.76649E+02</wgt>
<wgt id='2205'>0.80142E+02</wgt>
<wgt id='2206'>0.82281E+02</wgt>
<wgt id='2207'>0.85372E+02</wgt>
<wgt id='2208'>0.87504E+02</wgt>
<wgt id='2300'>0.84647E+02</wgt>
<wgt id='2301'>0.84780E+02</wgt>
<wgt id='2302'>0.84477E+02</wgt>
<wgt id='2303'>0.84706E+02</wgt>
<wgt id='2304'>0.84879E+02</wgt>
<wgt id='2305'>0.84737E+02</wgt>
<wgt id='2306'>0.84629E+02</wgt>
<wgt id='2307'>0.84722E+02</wgt>
<wgt id='2308'>0.84567E+02</wgt>
<wgt id='2309'>0.84695E+02</wgt>
<wgt id='2310'>0.84514E+02</wgt>
<wgt id='2311'>0.84624E+02</wgt>
<wgt id='2312'>0.84801E+02</wgt>
<wgt id='2313'>0.84536E+02</wgt>
<wgt id='2314'>0.84690E+02</wgt>
<wgt id='2315'>0.84706E+02</wgt>
<wgt id='2316'>0.84639E+02</wgt>
<wgt id='2317'>0.84649E+02</wgt>
<wgt id='2318'>0.84666E+02</wgt>
<wgt id='2319'>0.84786E+02</wgt>
<wgt id='2320'>0.84795E+02</wgt>
<wgt id='2321'>0.84783E+02</wgt>
<wgt id='2322'>0.84658E+02</wgt>
<wgt id='2323'>0.84706E+02</wgt>
<wgt id='2324'>0.84717E+02</wgt>
<wgt id='2325'>0.84768E+02</wgt>
<wgt id='2326'>0.84547E+02</wgt>
<wgt id='2327'>0.84686E+02</wgt>
<wgt id='2328'>0.84573E+02</wgt>
<wgt id='2329'>0.84399E+02</wgt>
<wgt id='2330'>0.85134E+02</wgt>
<wgt id='2331'>0.84896E+02</wgt>
<wgt id='2332'>0.84677E+02</wgt>
<wgt id='2333'>0.84872E+02</wgt>
<wgt id='2334'>0.84636E+02</wgt>
<wgt id='2335'>0.85129E+02</wgt>
<wgt id='2336'>0.84765E+02</wgt>
<wgt id='2337'>0.84553E+02</wgt>
<wgt id='2338'>0.84673E+02</wgt>
<wgt id='2339'>0.84677E+02</wgt>
<wgt id='2340'>0.84465E+02</wgt>
<wgt id='2341'>0.84697E+02</wgt>
<wgt id='2342'>0.84597E+02</wgt>
<wgt id='2343'>0.84541E+02</wgt>
<wgt id='2344'>0.84688E+02</wgt>
<wgt id='2345'>0.84714E+02</wgt>
<wgt id='2346'>0.84757E+02</wgt>
<wgt id='2347'>0.84664E+02</wgt>
<wgt id='2348'>0.84612E+02</wgt>
<wgt id='2349'>0.84620E+02</wgt>
<wgt id='2350'>0.84561E+02</wgt>
<wgt id='2351'>0.84756E+02</wgt>
<wgt id='2352'>0.84598E+02</wgt>
<wgt id='2353'>0.84657E+02</wgt>
<wgt id='2354'>0.84675E+02</wgt>
<wgt id='2355'>0.84550E+02</wgt>
<wgt id='2356'>0.84673E+02</wgt>
<wgt id='2357'>0.84666E+02</wgt>
<wgt id='2358'>0.84569E+02</wgt>
<wgt id='2359'>0.84681E+02</wgt>
<wgt id='2360'>0.84689E+02</wgt>
<wgt id='2361'>0.84726E+02</wgt>
<wgt id='2362'>0.84680E+02</wgt>
<wgt id='2363'>0.84673E+02</wgt>
<wgt id='2364'>0.84624E+02</wgt>
<wgt id='2365'>0.84647E+02</wgt>
<wgt id='2366'>0.84678E+02</wgt>
<wgt id='2367'>0.84578E+02</wgt>
<wgt id='2368'>0.84672E+02</wgt>
<wgt id='2369'>0.84603E+02</wgt>
<wgt id='2370'>0.84624E+02</wgt>
<wgt id='2371'>0.84630E+02</wgt>
<wgt id='2372'>0.84681E+02</wgt>
<wgt id='2373'>0.84633E+02</wgt>
<wgt id='2374'>0.84655E+02</wgt>
<wgt id='2375'>0.84665E+02</wgt>
<wgt id='2376'>0.84642E+02</wgt>
<wgt id='2377'>0.84639E+02</wgt>
<wgt id='2378'>0.84674E+02</wgt>
<wgt id='2379'>0.84641E+02</wgt>
<wgt id='2380'>0.84633E+02</wgt>
<wgt id='2381'>0.84642E+02</wgt>
<wgt id='2382'>0.84642E+02</wgt>
<wgt id='2383'>0.84637E+02</wgt>
<wgt id='2384'>0.84623E+02</wgt>
<wgt id='2385'>0.84664E+02</wgt>
<wgt id='2386'>0.84648E+02</wgt>
<wgt id='2387'>0.84634E+02</wgt>
<wgt id='2388'>0.84633E+02</wgt>
<wgt id='2389'>0.84650E+02</wgt>
<wgt id='2390'>0.84658E+02</wgt>
<wgt id='2391'>0.84650E+02</wgt>
<wgt id='2392'>0.84637E+02</wgt>
<wgt id='2393'>0.84647E+02</wgt>
<wgt id='2394'>0.84660E+02</wgt>
<wgt id='2395'>0.84651E+02</wgt>
<wgt id='2396'>0.84637E+02</wgt>
<wgt id='2397'>0.84630E+02</wgt>
<wgt id='2398'>0.84634E+02</wgt>
<wgt id='2399'>0.84655E+02</wgt>
<wgt id='2400'>0.84653E+02</wgt>
<wgt id='2401'>0.82290E+02</wgt>
<wgt id='2402'>0.86889E+02</wgt>
<wgt id='2500'>0.81224E+02</wgt>
<wgt id='2501'>0.85958E+02</wgt>
<wgt id='2600'>0.79086E+02</wgt>
<wgt id='2601'>0.78942E+02</wgt>
<wgt id='2602'>0.79211E+02</wgt>
<wgt id='2603'>0.79050E+02</wgt>
<wgt id='2604'>0.79225E+02</wgt>
<wgt id='2605'>0.79012E+02</wgt>
<wgt id='2606'>0.79004E+02</wgt>
<wgt id='2607'>0.79172E+02</wgt>
<wgt id='2608'>0.79101E+02</wgt>
<wgt id='2609'>0.79035E+02</wgt>
<wgt id='2610'>0.79042E+02</wgt>
<wgt id='2611'>0.79040E+02</wgt>
<wgt id='2612'>0.79216E+02</wgt>
<wgt id='2613'>0.79049E+02</wgt>
<wgt id='2614'>0.79040E+02</wgt>
<wgt id='2615'>0.78917E+02</wgt>
<wgt id='2616'>0.79070E+02</wgt>
<wgt id='2617'>0.78926E+02</wgt>
<wgt id='2618'>0.78925E+02</wgt>
<wgt id='2619'>0.79146E+02</wgt>
<wgt id='2620'>0.79062E+02</wgt>
<wgt id='2621'>0.79087E+02</wgt>
<wgt id='2622'>0.79295E+02</wgt>
<wgt id='2623'>0.79090E+02</wgt>
<wgt id='2624'>0.79095E+02</wgt>
<wgt id='2625'>0.78994E+02</wgt>
<wgt id='2626'>0.79058E+02</wgt>
<wgt id='2627'>0.79052E+02</wgt>
<wgt id='2628'>0.79110E+02</wgt>
<wgt id='2629'>0.79082E+02</wgt>
<wgt id='2630'>0.79089E+02</wgt>
<wgt id='2631'>0.79028E+02</wgt>
<wgt id='2632'>0.79124E+02</wgt>
<wgt id='2633'>0.79064E+02</wgt>
<wgt id='2634'>0.79061E+02</wgt>
<wgt id='2635'>0.79098E+02</wgt>
<wgt id='2636'>0.79061E+02</wgt>
<wgt id='2637'>0.79094E+02</wgt>
<wgt id='2638'>0.79127E+02</wgt>
<wgt id='2639'>0.79082E+02</wgt>
<wgt id='2640'>0.79084E+02</wgt>
<wgt id='2641'>0.79115E+02</wgt>
<wgt id='2642'>0.79101E+02</wgt>
<wgt id='2643'>0.79104E+02</wgt>
<wgt id='2644'>0.79079E+02</wgt>
<wgt id='2645'>0.79093E+02</wgt>
<wgt id='2646'>0.79081E+02</wgt>
<wgt id='2647'>0.79093E+02</wgt>
<wgt id='2648'>0.79088E+02</wgt>
<wgt id='2649'>0.79088E+02</wgt>
<wgt id='2650'>0.79086E+02</wgt>
<wgt id='2651'>0.77720E+02</wgt>
<wgt id='2652'>0.80348E+02</wgt>
<wgt id='2700'>0.76435E+02</wgt>
<wgt id='2701'>0.77720E+02</wgt>
<wgt id='2702'>0.78458E+02</wgt>
<wgt id='2703'>0.79684E+02</wgt>
<wgt id='2704'>0.80348E+02</wgt>
<wgt id='2705'>0.81537E+02</wgt>
<wgt id='2800'>0.80263E+02</wgt>
<wgt id='4000'>0.79683E+02</wgt>
<wgt id='4001'>0.79942E+02</wgt>
<wgt id='4002'>0.79547E+02</wgt>
<wgt id='4003'>0.80050E+02</wgt>
<wgt id='4004'>0.79098E+02</wgt>
<wgt id='4005'>0.79276E+02</wgt>
<wgt id='4006'>0.80020E+02</wgt>
<wgt id='4007'>0.80573E+02</wgt>
<wgt id='4008'>0.78796E+02</wgt>
<wgt id='4009'>0.79992E+02</wgt>
<wgt id='4010'>0.79433E+02</wgt>
<wgt id='4011'>0.79945E+02</wgt>
<wgt id='4012'>0.79407E+02</wgt>
<wgt id='4013'>0.79920E+02</wgt>
<wgt id='4014'>0.79470E+02</wgt>
<wgt id='4015'>0.79224E+02</wgt>
<wgt id='4016'>0.79859E+02</wgt>
<wgt id='4017'>0.79601E+02</wgt>
<wgt id='4018'>0.79789E+02</wgt>
<wgt id='4019'>0.80115E+02</wgt>
<wgt id='4020'>0.78969E+02</wgt>
<wgt id='4021'>0.79719E+02</wgt>
<wgt id='4022'>0.79592E+02</wgt>
<wgt id='4023'>0.79450E+02</wgt>
<wgt id='4024'>0.79862E+02</wgt>
<wgt id='4025'>0.79917E+02</wgt>
<wgt id='4026'>0.79102E+02</wgt>
<wgt id='4027'>0.79574E+02</wgt>
<wgt id='4028'>0.79734E+02</wgt>
<wgt id='4029'>0.79219E+02</wgt>
<wgt id='4030'>0.79492E+02</wgt>
<wgt id='4031'>0.79523E+02</wgt>
<wgt id='4032'>0.79475E+02</wgt>
<wgt id='4033'>0.79625E+02</wgt>
<wgt id='4034'>0.79485E+02</wgt>
<wgt id='4035'>0.80341E+02</wgt>
<wgt id='4036'>0.79107E+02</wgt>
<wgt id='4037'>0.80760E+02</wgt>
<wgt id='4038'>0.78784E+02</wgt>
<wgt id='4039'>0.80915E+02</wgt>
<wgt id='4040'>0.78388E+02</wgt>
<wgt id='4041'>0.79754E+02</wgt>
<wgt id='4042'>0.79532E+02</wgt>
<wgt id='4043'>0.79087E+02</wgt>
<wgt id='4044'>0.79695E+02</wgt>
<wgt id='4045'>0.81093E+02</wgt>
<wgt id='4046'>0.78950E+02</wgt>
<wgt id='4047'>0.78936E+02</wgt>
<wgt id='4048'>0.79891E+02</wgt>
<wgt id='4049'>0.79598E+02</wgt>
<wgt id='4050'>0.79664E+02</wgt>
<wgt id='4051'>0.80826E+02</wgt>
<wgt id='4052'>0.78625E+02</wgt>
<wgt id='4053'>0.80121E+02</wgt>
<wgt id='4054'>0.78901E+02</wgt>
<wgt id='4055'>0.79978E+02</wgt>
<wgt id='4056'>0.79291E+02</wgt>
<wgt id='4057'>0.79008E+02</wgt>
<wgt id='4058'>0.80163E+02</wgt>
<wgt id='4100'>0.80449E+02</wgt>
<wgt id='4101'>0.80080E+02</wgt>
<wgt id='4102'>0.79261E+02</wgt>
<wgt id='4103'>0.78820E+02</wgt>
<wgt id='4200'>0.77350E+02</wgt>
<wgt id='4201'>0.77393E+02</wgt>
<wgt id='4202'>0.77426E+02</wgt>
<wgt id='4203'>0.76867E+02</wgt>
<wgt id='4204'>0.77723E+02</wgt>
<wgt id='4205'>0.77315E+02</wgt>
<wgt id='4206'>0.77446E+02</wgt>
<wgt id='4207'>0.77294E+02</wgt>
<wgt id='4208'>0.77364E+02</wgt>
<wgt id='4209'>0.77358E+02</wgt>
<wgt id='4210'>0.77393E+02</wgt>
<wgt id='4211'>0.78236E+02</wgt>
<wgt id='4212'>0.76630E+02</wgt>
<wgt id='4213'>0.77502E+02</wgt>
<wgt id='4214'>0.77086E+02</wgt>
<wgt id='4215'>0.77387E+02</wgt>
<wgt id='4216'>0.77070E+02</wgt>
<wgt id='4217'>0.77048E+02</wgt>
<wgt id='4218'>0.77562E+02</wgt>
<wgt id='4219'>0.76476E+02</wgt>
<wgt id='4220'>0.78107E+02</wgt>
<wgt id='4221'>0.76713E+02</wgt>
<wgt id='4222'>0.77998E+02</wgt>
<wgt id='4223'>0.77726E+02</wgt>
<wgt id='4224'>0.76867E+02</wgt>
<wgt id='4225'>0.76044E+02</wgt>
<wgt id='4226'>0.78488E+02</wgt>
<wgt id='4227'>0.77688E+02</wgt>
<wgt id='4228'>0.77046E+02</wgt>
<wgt id='4229'>0.76805E+02</wgt>
<wgt id='4230'>0.77693E+02</wgt>
<wgt id='4231'>0.77230E+02</wgt>
<wgt id='4232'>0.77455E+02</wgt>
<wgt id='4233'>0.77492E+02</wgt>
<wgt id='4234'>0.77062E+02</wgt>
<wgt id='4235'>0.77734E+02</wgt>
<wgt id='4236'>0.76966E+02</wgt>
<wgt id='4237'>0.77573E+02</wgt>
<wgt id='4238'>0.76981E+02</wgt>
<wgt id='4239'>0.77800E+02</wgt>
<wgt id='4240'>0.76252E+02</wgt>
<wgt id='4241'>0.76977E+02</wgt>
<wgt id='4242'>0.77739E+02</wgt>
<wgt id='4243'>0.77375E+02</wgt>
<wgt id='4244'>0.77369E+02</wgt>
<wgt id='4245'>0.76614E+02</wgt>
<wgt id='4246'>0.78066E+02</wgt>
<wgt id='4247'>0.77047E+02</wgt>
<wgt id='4248'>0.77509E+02</wgt>
<wgt id='4249'>0.78286E+02</wgt>
<wgt id='4250'>0.76191E+02</wgt>
<wgt id='4251'>0.76424E+02</wgt>
<wgt id='4252'>0.77834E+02</wgt>
<wgt id='4253'>0.76854E+02</wgt>
<wgt id='4254'>0.77687E+02</wgt>
<wgt id='4255'>0.77687E+02</wgt>
<wgt id='4256'>0.77008E+02</wgt>
<wgt id='4257'>0.75958E+02</wgt>
<wgt id='4258'>0.77760E+02</wgt>
<wgt id='4300'>0.78903E+02</wgt>
<wgt id='4301'>0.78591E+02</wgt>
<wgt id='5000'>0.79919E+02</wgt>
<wgt id='5001'>0.79953E+02</wgt>
<wgt id='5002'>0.79874E+02</wgt>
<wgt id='5003'>0.79936E+02</wgt>
<wgt id='5004'>0.79903E+02</wgt>
<wgt id='5005'>0.79922E+02</wgt>
<wgt id='5006'>0.79913E+02</wgt>
<wgt id='5007'>0.79985E+02</wgt>
<wgt id='5008'>0.79865E+02</wgt>
<wgt id='5009'>0.80011E+02</wgt>
<wgt id='5010'>0.79824E+02</wgt>
<wgt id='5011'>0.80093E+02</wgt>
<wgt id='5012'>0.79750E+02</wgt>
<wgt id='5013'>0.79998E+02</wgt>
<wgt id='5014'>0.79863E+02</wgt>
<wgt id='5015'>0.79537E+02</wgt>
<wgt id='5016'>0.79537E+02</wgt>
<wgt id='5017'>0.80365E+02</wgt>
<wgt id='5018'>0.79617E+02</wgt>
<wgt id='5019'>0.80244E+02</wgt>
<wgt id='5020'>0.79474E+02</wgt>
<wgt id='5021'>0.80028E+02</wgt>
<wgt id='5022'>0.79747E+02</wgt>
<wgt id='5023'>0.79814E+02</wgt>
<wgt id='5024'>0.80169E+02</wgt>
<wgt id='5025'>0.79581E+02</wgt>
<wgt id='5026'>0.80299E+02</wgt>
<wgt id='5027'>0.79949E+02</wgt>
<wgt id='5028'>0.79837E+02</wgt>
<wgt id='5029'>0.80500E+02</wgt>
<wgt id='5030'>0.79588E+02</wgt>
<wgt id='5031'>0.79642E+02</wgt>
<wgt id='5032'>0.80747E+02</wgt>
<wgt id='5033'>0.79926E+02</wgt>
<wgt id='5034'>0.79911E+02</wgt>
<wgt id='5035'>0.79919E+02</wgt>
<wgt id='5036'>0.79920E+02</wgt>
<wgt id='5037'>0.79820E+02</wgt>
<wgt id='5038'>0.79975E+02</wgt>
<wgt id='5039'>0.80114E+02</wgt>
<wgt id='5040'>0.79443E+02</wgt>
<wgt id='5041'>0.80107E+02</wgt>
<wgt id='5042'>0.79732E+02</wgt>
<wgt id='5043'>0.80000E+02</wgt>
<wgt id='5044'>0.79898E+02</wgt>
<wgt id='5045'>0.79831E+02</wgt>
<wgt id='5046'>0.79977E+02</wgt>
<wgt id='5047'>0.79954E+02</wgt>
<wgt id='5048'>0.79767E+02</wgt>
<wgt id='5049'>0.79880E+02</wgt>
<wgt id='5050'>0.80006E+02</wgt>
<wgt id='5051'>0.80065E+02</wgt>
<wgt id='5052'>0.79789E+02</wgt>
<wgt id='5053'>0.79769E+02</wgt>
<wgt id='5054'>0.80083E+02</wgt>
<wgt id='5055'>0.79996E+02</wgt>
<wgt id='5056'>0.79940E+02</wgt>
<wgt id='5057'>0.79676E+02</wgt>
<wgt id='5058'>0.80088E+02</wgt>
<wgt id='5059'>0.79892E+02</wgt>
<wgt id='5060'>0.79946E+02</wgt>
<wgt id='5061'>0.80124E+02</wgt>
<wgt id='5062'>0.79969E+02</wgt>
<wgt id='5063'>0.80179E+02</wgt>
<wgt id='5064'>0.79897E+02</wgt>
<wgt id='5100'>0.79919E+02</wgt>
<wgt id='5101'>0.79934E+02</wgt>
<wgt id='6000'>0.79779E+02</wgt>
<wgt id='6001'>0.79869E+02</wgt>
<wgt id='6002'>0.79904E+02</wgt>
<wgt id='6003'>0.79686E+02</wgt>
<wgt id='6004'>0.79722E+02</wgt>
<wgt id='6005'>0.79578E+02</wgt>
<wgt id='6006'>0.79992E+02</wgt>
<wgt id='6007'>0.79631E+02</wgt>
<wgt id='6008'>0.79242E+02</wgt>
<wgt id='6009'>0.79915E+02</wgt>
<wgt id='6010'>0.78739E+02</wgt>
<wgt id='6011'>0.79771E+02</wgt>
<wgt id='6012'>0.79985E+02</wgt>
<wgt id='6013'>0.79512E+02</wgt>
<wgt id='6014'>0.79682E+02</wgt>
<wgt id='6015'>0.79439E+02</wgt>
<wgt id='6016'>0.79891E+02</wgt>
<wgt id='6017'>0.79678E+02</wgt>
<wgt id='6018'>0.79600E+02</wgt>
<wgt id='6019'>0.79758E+02</wgt>
<wgt id='6020'>0.79951E+02</wgt>
<wgt id='6021'>0.79750E+02</wgt>
<wgt id='6022'>0.79834E+02</wgt>
<wgt id='6023'>0.79765E+02</wgt>
<wgt id='6024'>0.79837E+02</wgt>
<wgt id='6025'>0.80013E+02</wgt>
<wgt id='6026'>0.79753E+02</wgt>
<wgt id='6027'>0.79787E+02</wgt>
<wgt id='6028'>0.79636E+02</wgt>
<wgt id='6029'>0.79720E+02</wgt>
<wgt id='6030'>0.79842E+02</wgt>
<wgt id='6031'>0.79616E+02</wgt>
<wgt id='6032'>0.79819E+02</wgt>
<wgt id='6033'>0.79711E+02</wgt>
<wgt id='6034'>0.79980E+02</wgt>
<wgt id='6035'>0.79813E+02</wgt>
<wgt id='6036'>0.80178E+02</wgt>
<wgt id='6037'>0.79777E+02</wgt>
<wgt id='6038'>0.79793E+02</wgt>
<wgt id='6039'>0.79880E+02</wgt>
<wgt id='6040'>0.79771E+02</wgt>
<wgt id='6041'>0.78706E+02</wgt>
<wgt id='6042'>0.80700E+02</wgt>
<wgt id='7000'>0.80282E+02</wgt>
<wgt id='7001'>0.79968E+02</wgt>
<wgt id='7002'>0.80127E+02</wgt>
<wgt id='7003'>0.80062E+02</wgt>
<wgt id='7004'>0.80033E+02</wgt>
<wgt id='7005'>0.80176E+02</wgt>
<wgt id='7006'>0.79919E+02</wgt>
<wgt id='7007'>0.80518E+02</wgt>
<wgt id='7008'>0.79590E+02</wgt>
<wgt id='7009'>0.79784E+02</wgt>
<wgt id='7010'>0.80321E+02</wgt>
<wgt id='7011'>0.80316E+02</wgt>
<wgt id='7012'>0.79783E+02</wgt>
<wgt id='7013'>0.79895E+02</wgt>
<wgt id='7014'>0.80194E+02</wgt>
<wgt id='7015'>0.79994E+02</wgt>
<wgt id='7016'>0.79925E+02</wgt>
<wgt id='7017'>0.80043E+02</wgt>
<wgt id='7018'>0.80051E+02</wgt>
<wgt id='7019'>0.79963E+02</wgt>
<wgt id='7020'>0.80139E+02</wgt>
<wgt id='7021'>0.80092E+02</wgt>
<wgt id='7022'>0.79960E+02</wgt>
<wgt id='7023'>0.79692E+02</wgt>
<wgt id='7024'>0.80406E+02</wgt>
<wgt id='7025'>0.79169E+02</wgt>
<wgt id='7026'>0.80814E+02</wgt>
<wgt id='7027'>0.79721E+02</wgt>
<wgt id='7028'>0.80442E+02</wgt>
<wgt id='8000'>0.80503E+02</wgt>
<wgt id='8001'>0.80490E+02</wgt>
<wgt id='8002'>0.80528E+02</wgt>
<wgt id='8003'>0.80507E+02</wgt>
<wgt id='8004'>0.80501E+02</wgt>
<wgt id='8005'>0.80338E+02</wgt>
<wgt id='8006'>0.80555E+02</wgt>
<wgt id='8007'>0.80598E+02</wgt>
<wgt id='8008'>0.80680E+02</wgt>
<wgt id='8009'>0.80843E+02</wgt>
<wgt id='8010'>0.80434E+02</wgt>
<wgt id='8011'>0.80505E+02</wgt>
<wgt id='8012'>0.80250E+02</wgt>
<wgt id='8013'>0.80375E+02</wgt>
<wgt id='8014'>0.80642E+02</wgt>
<wgt id='8015'>0.80453E+02</wgt>
<wgt id='8016'>0.80572E+02</wgt>
<wgt id='8017'>0.80548E+02</wgt>
<wgt id='8018'>0.80664E+02</wgt>
<wgt id='8019'>0.80567E+02</wgt>
<wgt id='8020'>0.80426E+02</wgt>
<wgt id='8021'>0.80447E+02</wgt>
<wgt id='8022'>0.80356E+02</wgt>
<wgt id='8023'>0.80445E+02</wgt>
<wgt id='8024'>0.80336E+02</wgt>
<wgt id='8025'>0.80519E+02</wgt>
<wgt id='8026'>0.80621E+02</wgt>
<wgt id='8027'>0.80511E+02</wgt>
<wgt id='8028'>0.80567E+02</wgt>
<wgt id='8029'>0.80389E+02</wgt>
<wgt id='3000'>0.81104E+02</wgt>
<wgt id='3001'>0.80621E+02</wgt>
<wgt id='3002'>0.79419E+02</wgt>
<wgt id='3003'>0.78653E+02</wgt>
<wgt id='3004'>0.81837E+02</wgt>
<wgt id='3005'>0.81760E+02</wgt>
<wgt id='3006'>0.83069E+02</wgt>
<wgt id='3007'>0.80843E+02</wgt>
<wgt id='3008'>0.80861E+02</wgt>
<wgt id='3009'>0.80795E+02</wgt>
<wgt id='3010'>0.82572E+02</wgt>
<wgt id='3011'>0.81558E+02</wgt>
<wgt id='3012'>0.81362E+02</wgt>
<wgt id='3013'>0.80778E+02</wgt>
<wgt id='3014'>0.80807E+02</wgt>
<wgt id='3015'>0.80533E+02</wgt>
<wgt id='3016'>0.81577E+02</wgt>
<wgt id='3017'>0.82736E+02</wgt>
<wgt id='3018'>0.81168E+02</wgt>
<wgt id='3019'>0.79875E+02</wgt>
<wgt id='3020'>0.81015E+02</wgt>
<wgt id='3021'>0.79532E+02</wgt>
<wgt id='3022'>0.79666E+02</wgt>
<wgt id='3023'>0.79875E+02</wgt>
<wgt id='3024'>0.81076E+02</wgt>
<wgt id='3025'>0.80249E+02</wgt>
<wgt id='3026'>0.80923E+02</wgt>
<wgt id='3027'>0.79702E+02</wgt>
<wgt id='3028'>0.80510E+02</wgt>
<wgt id='3029'>0.82219E+02</wgt>
<wgt id='3030'>0.81722E+02</wgt>
<wgt id='3031'>0.80793E+02</wgt>
<wgt id='3032'>0.82076E+02</wgt>
<wgt id='3033'>0.80331E+02</wgt>
<wgt id='3034'>0.81981E+02</wgt>
<wgt id='3035'>0.81609E+02</wgt>
<wgt id='3036'>0.81431E+02</wgt>
<wgt id='3037'>0.81059E+02</wgt>
<wgt id='3038'>0.81555E+02</wgt>
<wgt id='3039'>0.80236E+02</wgt>
<wgt id='3040'>0.81355E+02</wgt>
<wgt id='3041'>0.81793E+02</wgt>
<wgt id='3042'>0.81107E+02</wgt>
<wgt id='3043'>0.81265E+02</wgt>
<wgt id='3044'>0.81108E+02</wgt>
<wgt id='3045'>0.81487E+02</wgt>
<wgt id='3046'>0.81861E+02</wgt>
<wgt id='3047'>0.80031E+02</wgt>
<wgt id='3048'>0.80817E+02</wgt>
<wgt id='3049'>0.80124E+02</wgt>
<wgt id='3050'>0.81839E+02</wgt>
<wgt id='3051'>0.80562E+02</wgt>
<wgt id='3052'>0.80379E+02</wgt>
<wgt id='3053'>0.80602E+02</wgt>
<wgt id='3054'>0.79468E+02</wgt>
<wgt id='3055'>0.80958E+02</wgt>
<wgt id='3056'>0.81131E+02</wgt>
<wgt id='3057'>0.80524E+02</wgt>
<wgt id='3058'>0.80746E+02</wgt>
<wgt id='3059'>0.82511E+02</wgt>
<wgt id='3060'>0.81255E+02</wgt>
<wgt id='3061'>0.80509E+02</wgt>
<wgt id='3062'>0.80757E+02</wgt>
<wgt id='3063'>0.80999E+02</wgt>
<wgt id='3064'>0.81294E+02</wgt>
<wgt id='3065'>0.80788E+02</wgt>
<wgt id='3066'>0.81657E+02</wgt>
<wgt id='3067'>0.79470E+02</wgt>
<wgt id='3068'>0.81402E+02</wgt>
<wgt id='3069'>0.81277E+02</wgt>
<wgt id='3070'>0.80248E+02</wgt>
<wgt id='3071'>0.81412E+02</wgt>
<wgt id='3072'>0.79604E+02</wgt>
<wgt id='3073'>0.82036E+02</wgt>
<wgt id='3074'>0.81195E+02</wgt>
<wgt id='3075'>0.82252E+02</wgt>
<wgt id='3076'>0.82237E+02</wgt>
<wgt id='3077'>0.81171E+02</wgt>
<wgt id='3078'>0.79890E+02</wgt>
<wgt id='3079'>0.81249E+02</wgt>
<wgt id='3080'>0.81780E+02</wgt>
<wgt id='3081'>0.80400E+02</wgt>
<wgt id='3082'>0.81577E+02</wgt>
<wgt id='3083'>0.81359E+02</wgt>
<wgt id='3084'>0.81220E+02</wgt>
<wgt id='3085'>0.79364E+02</wgt>
<wgt id='3086'>0.80470E+02</wgt>
<wgt id='3087'>0.81369E+02</wgt>
<wgt id='3088'>0.82551E+02</wgt>
<wgt id='3089'>0.84563E+02</wgt>
<wgt id='3090'>0.81920E+02</wgt>
<wgt id='3091'>0.81030E+02</wgt>
<wgt id='3092'>0.82586E+02</wgt>
<wgt id='3093'>0.81902E+02</wgt>
<wgt id='3094'>0.81401E+02</wgt>
<wgt id='3095'>0.81819E+02</wgt>
<wgt id='3096'>0.80045E+02</wgt>
<wgt id='3097'>0.81498E+02</wgt>
<wgt id='3098'>0.82319E+02</wgt>
<wgt id='3099'>0.80795E+02</wgt>
<wgt id='3100'>0.81347E+02</wgt>
<wgt id='3200'>0.79109E+02</wgt>
<wgt id='3201'>0.79485E+02</wgt>
<wgt id='3202'>0.78037E+02</wgt>
<wgt id='3203'>0.79319E+02</wgt>
<wgt id='3204'>0.78134E+02</wgt>
<wgt id='3205'>0.79188E+02</wgt>
<wgt id='3206'>0.79999E+02</wgt>
<wgt id='3207'>0.80136E+02</wgt>
<wgt id='3208'>0.79845E+02</wgt>
<wgt id='3209'>0.78752E+02</wgt>
<wgt id='3210'>0.79053E+02</wgt>
<wgt id='3211'>0.79791E+02</wgt>
<wgt id='3212'>0.78812E+02</wgt>
<wgt id='3213'>0.78831E+02</wgt>
<wgt id='3214'>0.78340E+02</wgt>
<wgt id='3215'>0.79276E+02</wgt>
<wgt id='3216'>0.79863E+02</wgt>
<wgt id='3217'>0.79726E+02</wgt>
<wgt id='3218'>0.79647E+02</wgt>
<wgt id='3219'>0.79346E+02</wgt>
<wgt id='3220'>0.78488E+02</wgt>
<wgt id='3221'>0.79657E+02</wgt>
<wgt id='3222'>0.79984E+02</wgt>
<wgt id='3223'>0.79577E+02</wgt>
<wgt id='3224'>0.78857E+02</wgt>
<wgt id='3225'>0.80132E+02</wgt>
<wgt id='3226'>0.78786E+02</wgt>
<wgt id='3227'>0.78249E+02</wgt>
<wgt id='3228'>0.78399E+02</wgt>
<wgt id='3229'>0.79803E+02</wgt>
<wgt id='3230'>0.79498E+02</wgt>
<wgt id='3231'>0.79123E+02</wgt>
<wgt id='3232'>0.79376E+02</wgt>
<wgt id='3233'>0.79258E+02</wgt>
<wgt id='3234'>0.78715E+02</wgt>
<wgt id='3235'>0.78943E+02</wgt>
<wgt id='3236'>0.78230E+02</wgt>
<wgt id='3237'>0.79258E+02</wgt>
<wgt id='3238'>0.78346E+02</wgt>
<wgt id='3239'>0.79249E+02</wgt>
<wgt id='3240'>0.78583E+02</wgt>
<wgt id='3241'>0.79886E+02</wgt>
<wgt id='3242'>0.78314E+02</wgt>
<wgt id='3243'>0.78700E+02</wgt>
<wgt id='3244'>0.78811E+02</wgt>
<wgt id='3245'>0.79384E+02</wgt>
<wgt id='3246'>0.77835E+02</wgt>
<wgt id='3247'>0.79025E+02</wgt>
<wgt id='3248'>0.78512E+02</wgt>
<wgt id='3249'>0.78520E+02</wgt>
<wgt id='3250'>0.79963E+02</wgt>
<wgt id='3251'>0.78707E+02</wgt>
<wgt id='3252'>0.79233E+02</wgt>
<wgt id='3253'>0.78990E+02</wgt>
<wgt id='3254'>0.79247E+02</wgt>
<wgt id='3255'>0.78778E+02</wgt>
<wgt id='3256'>0.79010E+02</wgt>
<wgt id='3257'>0.79237E+02</wgt>
<wgt id='3258'>0.79065E+02</wgt>
<wgt id='3259'>0.78498E+02</wgt>
<wgt id='3260'>0.78908E+02</wgt>
<wgt id='3261'>0.78925E+02</wgt>
<wgt id='3262'>0.79045E+02</wgt>
<wgt id='3263'>0.80110E+02</wgt>
<wgt id='3264'>0.79231E+02</wgt>
<wgt id='3265'>0.79503E+02</wgt>
<wgt id='3266'>0.79258E+02</wgt>
<wgt id='3267'>0.78864E+02</wgt>
<wgt id='3268'>0.79396E+02</wgt>
<wgt id='3269'>0.79250E+02</wgt>
<wgt id='3270'>0.79936E+02</wgt>
<wgt id='3271'>0.79447E+02</wgt>
<wgt id='3272'>0.79400E+02</wgt>
<wgt id='3273'>0.78859E+02</wgt>
<wgt id='3274'>0.78650E+02</wgt>
<wgt id='3275'>0.79441E+02</wgt>
<wgt id='3276'>0.78660E+02</wgt>
<wgt id='3277'>0.79449E+02</wgt>
<wgt id='3278'>0.78979E+02</wgt>
<wgt id='3279'>0.79610E+02</wgt>
<wgt id='3280'>0.78754E+02</wgt>
<wgt id='3281'>0.79011E+02</wgt>
<wgt id='3282'>0.79185E+02</wgt>
<wgt id='3283'>0.79159E+02</wgt>
<wgt id='3284'>0.79078E+02</wgt>
<wgt id='3285'>0.78609E+02</wgt>
<wgt id='3286'>0.78561E+02</wgt>
<wgt id='3287'>0.79180E+02</wgt>
<wgt id='3288'>0.79508E+02</wgt>
<wgt id='3289'>0.80358E+02</wgt>
<wgt id='3290'>0.79214E+02</wgt>
<wgt id='3291'>0.77977E+02</wgt>
<wgt id='3292'>0.79416E+02</wgt>
<wgt id='3293'>0.78919E+02</wgt>
<wgt id='3294'>0.78206E+02</wgt>
<wgt id='3295'>0.79166E+02</wgt>
<wgt id='3296'>0.79841E+02</wgt>
<wgt id='3297'>0.79123E+02</wgt>
<wgt id='3298'>0.78623E+02</wgt>
<wgt id='3299'>0.79013E+02</wgt>
<wgt id='3300'>0.79234E+02</wgt>
<wgt id='3301'>0.77720E+02</wgt>
<wgt id='3302'>0.80348E+02</wgt>
<wgt id='3400'>0.78435E+02</wgt>
<wgt id='3401'>0.78252E+02</wgt>
<wgt id='3402'>0.77286E+02</wgt>
<wgt id='3403'>0.79406E+02</wgt>
<wgt id='3404'>0.79946E+02</wgt>
<wgt id='3405'>0.78888E+02</wgt>
<wgt id='3406'>0.79252E+02</wgt>
<wgt id='3407'>0.78278E+02</wgt>
<wgt id='3408'>0.79675E+02</wgt>
<wgt id='3409'>0.79280E+02</wgt>
<wgt id='3410'>0.78495E+02</wgt>
<wgt id='3411'>0.79557E+02</wgt>
<wgt id='3412'>0.79265E+02</wgt>
<wgt id='3413'>0.78423E+02</wgt>
<wgt id='3414'>0.77826E+02</wgt>
<wgt id='3415'>0.78043E+02</wgt>
<wgt id='3416'>0.77639E+02</wgt>
<wgt id='3417'>0.78941E+02</wgt>
<wgt id='3418'>0.77597E+02</wgt>
<wgt id='3419'>0.77861E+02</wgt>
<wgt id='3420'>0.78251E+02</wgt>
<wgt id='3421'>0.78194E+02</wgt>
<wgt id='3422'>0.79020E+02</wgt>
<wgt id='3423'>0.78817E+02</wgt>
<wgt id='3424'>0.79059E+02</wgt>
<wgt id='3425'>0.78127E+02</wgt>
<wgt id='3426'>0.78204E+02</wgt>
<wgt id='3427'>0.78071E+02</wgt>
<wgt id='3428'>0.79665E+02</wgt>
<wgt id='3429'>0.77682E+02</wgt>
<wgt id='3430'>0.78806E+02</wgt>
<wgt id='3431'>0.78660E+02</wgt>
<wgt id='3432'>0.78858E+02</wgt>
<wgt id='3433'>0.77502E+02</wgt>
<wgt id='3434'>0.78618E+02</wgt>
<wgt id='3435'>0.78605E+02</wgt>
<wgt id='3436'>0.78178E+02</wgt>
<wgt id='3437'>0.78987E+02</wgt>
<wgt id='3438'>0.77683E+02</wgt>
<wgt id='3439'>0.78331E+02</wgt>
<wgt id='3440'>0.78382E+02</wgt>
<wgt id='3441'>0.78063E+02</wgt>
<wgt id='3442'>0.76923E+02</wgt>
<wgt id='3443'>0.78580E+02</wgt>
<wgt id='3444'>0.78040E+02</wgt>
<wgt id='3445'>0.78308E+02</wgt>
<wgt id='3446'>0.78495E+02</wgt>
<wgt id='3447'>0.79013E+02</wgt>
<wgt id='3448'>0.79747E+02</wgt>
<wgt id='3449'>0.79072E+02</wgt>
<wgt id='3450'>0.78329E+02</wgt>
<wgt id='3451'>0.79478E+02</wgt>
<wgt id='3452'>0.78079E+02</wgt>
<wgt id='3453'>0.77610E+02</wgt>
<wgt id='3454'>0.77958E+02</wgt>
<wgt id='3455'>0.78948E+02</wgt>
<wgt id='3456'>0.78789E+02</wgt>
<wgt id='3457'>0.79199E+02</wgt>
<wgt id='3458'>0.78350E+02</wgt>
<wgt id='3459'>0.78266E+02</wgt>
<wgt id='3460'>0.78244E+02</wgt>
<wgt id='3461'>0.77556E+02</wgt>
<wgt id='3462'>0.78134E+02</wgt>
<wgt id='3463'>0.77450E+02</wgt>
<wgt id='3464'>0.79128E+02</wgt>
<wgt id='3465'>0.78622E+02</wgt>
<wgt id='3466'>0.78701E+02</wgt>
<wgt id='3467'>0.78317E+02</wgt>
<wgt id='3468'>0.77487E+02</wgt>
<wgt id='3469'>0.78248E+02</wgt>
<wgt id='3470'>0.78378E+02</wgt>
<wgt id='3471'>0.78239E+02</wgt>
<wgt id='3472'>0.77663E+02</wgt>
<wgt id='3473'>0.79085E+02</wgt>
<wgt id='3474'>0.78167E+02</wgt>
<wgt id='3475'>0.78599E+02</wgt>
<wgt id='3476'>0.78484E+02</wgt>
<wgt id='3477'>0.77980E+02</wgt>
<wgt id='3478'>0.79084E+02</wgt>
<wgt id='3479'>0.79061E+02</wgt>
<wgt id='3480'>0.78594E+02</wgt>
<wgt id='3481'>0.78919E+02</wgt>
<wgt id='3482'>0.78464E+02</wgt>
<wgt id='3483'>0.77626E+02</wgt>
<wgt id='3484'>0.77823E+02</wgt>
<wgt id='3485'>0.78130E+02</wgt>
<wgt id='3486'>0.76792E+02</wgt>
<wgt id='3487'>0.78549E+02</wgt>
<wgt id='3488'>0.79157E+02</wgt>
<wgt id='3489'>0.77579E+02</wgt>
<wgt id='3490'>0.78755E+02</wgt>
<wgt id='3491'>0.79308E+02</wgt>
<wgt id='3492'>0.78381E+02</wgt>
<wgt id='3493'>0.78612E+02</wgt>
<wgt id='3494'>0.76465E+02</wgt>
<wgt id='3495'>0.78456E+02</wgt>
<wgt id='3496'>0.77594E+02</wgt>
<wgt id='3497'>0.77923E+02</wgt>
<wgt id='3498'>0.79262E+02</wgt>
<wgt id='3499'>0.78166E+02</wgt>
<wgt id='3500'>0.79424E+02</wgt>
</rwgt>
</event>
<event>
     13 322200  8.11039E+01  6.56063E+01 -1.00000E+00  1.30838E-01
      21    -1     0     0   502   503  0.000000000E+00  0.000000000E+00  1.085134712E+03  1.085134712E+03  0.000000000E+00  0.00000E+00  9.000E+00
      21    -1     0     0   504   505  0.000000000E+00  0.000000000E+00 -2.042049143E+02  2.042049143E+02  0.000000000E+00  0.00000E+00  9.000E+00
       6     2     1     2   502     0 -4.858239343E+01  2.447245048E+02  6.871578691E+02  7.508851663E+02  1.714417210E+02  0.00000E+00  9.000E+00
      -6     2     1     2     0   505  3.222810662E+01 -3.082596844E+02  2.643547684E+02  4.420899495E+02  1.717480595E+02  0.00000E+00  9.000E+00
      21     1     1     2   504   503  1.635428682E+01  6.353517964E+01 -7.058283946E+01  9.636451098E+01  2.523185073E-06  0.00000E+00  9.000E+00
      24     2     3     3     0     0 -2.158080134E+01  1.799321965E+02  3.162245811E+02  3.733348558E+02  8.086780917E+01  0.00000E+00  9.000E+00
       5     1     3     3   502     0 -2.700159210E+01  6.479230829E+01  3.709332880E+02  3.775503105E+02  5.060000000E+00  0.00000E+00 -1.000E+00
     -24     2     4     4     0     0 -6.052850807E+00 -9.440717886E+01  1.565867796E+02  1.995247647E+02  7.963265521E+01  0.00000E+00  9.000E+00
      -5     1     4     4     0   505  3.828095742E+01 -2.138525056E+02  1.077679888E+02  2.425651848E+02  5.060000000E+00  0.00000E+00  1.000E+00
     -11     1     6     6     0     0 -4.326283762E+01  1.517238216E+02  2.860891472E+02  3.267090316E+02  5.100000000E-04  0.00000E+00  1.000E+00
      12     1     6     6     0     0  2.168203628E+01  2.820837490E+01  3.013543390E+01  4.662582426E+01  0.000000000E+00  0.00000E+00 -1.000E+00
      11     1     8     8     0     0 -3.659273114E+01 -3.622345077E+01  3.815980022E+01  6.408850686E+01  5.100000000E-04  0.00000E+00 -1.000E+00
     -12     1     8     8     0     0  3.053988033E+01 -5.818372808E+01  1.184269794E+02  1.354362579E+02  0.000000000E+00  0.00000E+00  1.000E+00
#rwgt            1           1   422.40335227315347               10        6819           0
<rwgt>
<wgt id='1001'>0.81104E+02</wgt>
<wgt id='1002'>0.65676E+02</wgt>
<wgt id='1003'>0.99108E+02</wgt>
<wgt id='1004'>0.76452E+02</wgt>
<wgt id='1005'>0.63296E+02</wgt>
<wgt id='1006'>0.91765E+02</wgt>
<wgt id='1007'>0.84258E+02</wgt>
<wgt id='1008'>0.65900E+02</wgt>
<wgt id='1009'>0.10575E+03</wgt>
<wgt id='2000'>0.81104E+02</wgt>
<wgt id='2001'>0.81029E+02</wgt>
<wgt id='2002'>0.80987E+02</wgt>
<wgt id='2003'>0.80931E+02</wgt>
<wgt id='2004'>0.81440E+02</wgt>
<wgt id='2005'>0.80835E+02</wgt>
<wgt id='2006'>0.81267E+02</wgt>
<wgt id='2007'>0.81147E+02</wgt>
<wgt id='2008'>0.81157E+02</wgt>
<wgt id='2009'>0.81188E+02</wgt>
<wgt id='2010'>0.80966E+02</wgt>
<wgt id='2011'>0.81077E+02</wgt>
<wgt id='2012'>0.81442E+02</wgt>
<wgt id='2013'>0.81157E+02</wgt>
<wgt id='2014'>0.81255E+02</wgt>
<wgt id='2015'>0.81278E+02</wgt>
<wgt id='2016'>0.81155E+02</wgt>
<wgt id='2017'>0.81124E+02</wgt>
<wgt id='2018'>0.80823E+02</wgt>
<wgt id='2019'>0.80904E+02</wgt>
<wgt id='2020'>0.80831E+02</wgt>
<wgt id='2021'>0.81136E+02</wgt>
<wgt id='2022'>0.81071E+02</wgt>
<wgt id='2023'>0.81145E+02</wgt>
<wgt id='2024'>0.80681E+02</wgt>
<wgt id='2025'>0.81240E+02</wgt>
<wgt id='2026'>0.81165E+02</wgt>
<wgt id='2027'>0.81455E+02</wgt>
<wgt id='2028'>0.80711E+02</wgt>
<wgt id='2029'>0.80864E+02</wgt>
<wgt id='2030'>0.81225E+02</wgt>
<wgt id='2031'>0.80769E+02</wgt>
<wgt id='2032'>0.80994E+02</wgt>
<wgt id='2033'>0.80960E+02</wgt>
<wgt id='2034'>0.80795E+02</wgt>
<wgt id='2035'>0.81199E+02</wgt>
<wgt id='2036'>0.81236E+02</wgt>
<wgt id='2037'>0.80938E+02</wgt>
<wgt id='2038'>0.81039E+02</wgt>
<wgt id='2039'>0.81015E+02</wgt>
<wgt id='2040'>0.80963E+02</wgt>
<wgt id='2041'>0.80965E+02</wgt>
<wgt id='2042'>0.81259E+02</wgt>
<wgt id='2043'>0.81126E+02</wgt>
<wgt id='2044'>0.81166E+02</wgt>
<wgt id='2045'>0.81111E+02</wgt>
<wgt id='2046'>0.80975E+02</wgt>
<wgt id='2047'>0.81134E+02</wgt>
<wgt id='2048'>0.81074E+02</wgt>
<wgt id='2049'>0.81011E+02</wgt>
<wgt id='2050'>0.81014E+02</wgt>
<wgt id='2051'>0.81018E+02</wgt>
<wgt id='2052'>0.81252E+02</wgt>
<wgt id='2053'>0.81095E+02</wgt>
<wgt id='2054'>0.81075E+02</wgt>
<wgt id='2055'>0.81025E+02</wgt>
<wgt id='2056'>0.81051E+02</wgt>
<wgt id='2057'>0.81141E+02</wgt>
<wgt id='2058'>0.81169E+02</wgt>
<wgt id='2059'>0.81109E+02</wgt>
<wgt id='2060'>0.81075E+02</wgt>
<wgt id='2061'>0.81047E+02</wgt>
<wgt id='2062'>0.81194E+02</wgt>
<wgt id='2063'>0.81123E+02</wgt>
<wgt id='2064'>0.81105E+02</wgt>
<wgt id='2065'>0.81178E+02</wgt>
<wgt id='2066'>0.81049E+02</wgt>
<wgt id='2067'>0.81050E+02</wgt>
<wgt id='2068'>0.81198E+02</wgt>
<wgt id='2069'>0.81095E+02</wgt>
<wgt id='2070'>0.81129E+02</wgt>
<wgt id='2071'>0.81066E+02</wgt>
<wgt id='2072'>0.81065E+02</wgt>
<wgt id='2073'>0.81127E+02</wgt>
<wgt id='2074'>0.81059E+02</wgt>
<wgt id='2075'>0.81089E+02</wgt>
<wgt id='2076'>0.81096E+02</wgt>
<wgt id='2077'>0.81158E+02</wgt>
<wgt id='2078'>0.81125E+02</wgt>
<wgt id='2079'>0.81078E+02</wgt>
<wgt id='2080'>0.81110E+02</wgt>
<wgt id='2081'>0.81083E+02</wgt>
<wgt id='2082'>0.81120E+02</wgt>
<wgt id='2083'>0.81178E+02</wgt>
<wgt id='2084'>0.81093E+02</wgt>
<wgt id='2085'>0.81120E+02</wgt>
<wgt id='2086'>0.81095E+02</wgt>
<wgt id='2087'>0.81115E+02</wgt>
<wgt id='2088'>0.81092E+02</wgt>
<wgt id='2089'>0.81076E+02</wgt>
<wgt id='2090'>0.81132E+02</wgt>
<wgt id='2091'>0.81120E+02</wgt>
<wgt id='2092'>0.81150E+02</wgt>
<wgt id='2093'>0.81066E+02</wgt>
<wgt id='2094'>0.81112E+02</wgt>
<wgt id='2095'>0.81137E+02</wgt>
<wgt id='2096'>0.81082E+02</wgt>
<wgt id='2097'>0.81130E+02</wgt>
<wgt id='2098'>0.81109E+02</wgt>
<wgt id='2099'>0.81118E+02</wgt>
<wgt id='2100'>0.81104E+02</wgt>
<wgt id='2101'>0.79454E+02</wgt>
<wgt id='2102'>0.82787E+02</wgt>
<wgt id='2200'>0.80938E+02</wgt>
<wgt id='2201'>0.72480E+02</wgt>
<wgt id='2202'>0.74231E+02</wgt>
<wgt id='2203'>0.76254E+02</wgt>
<wgt id='2204'>0.77504E+02</wgt>
<wgt id='2205'>0.80050E+02</wgt>
<wgt id='2206'>0.82118E+02</wgt>
<wgt id='2207'>0.84379E+02</wgt>
<wgt id='2208'>0.86574E+02</wgt>
<wgt id='2300'>0.86094E+02</wgt>
<wgt id='2301'>0.86153E+02</wgt>
<wgt id='2302'>0.86114E+02</wgt>
<wgt id='2303'>0.86041E+02</wgt>
<wgt id='2304'>0.86376E+02</wgt>
<wgt id='2305'>0.86157E+02</wgt>
<wgt id='2306'>0.86045E+02</wgt>
<wgt id='2307'>0.86192E+02</wgt>
<wgt id='2308'>0.85991E+02</wgt>
<wgt id='2309'>0.86188E+02</wgt>
<wgt id='2310'>0.85857E+02</wgt>
<wgt id='2311'>0.86002E+02</wgt>
<wgt id='2312'>0.86206E+02</wgt>
<wgt id='2313'>0.86219E+02</wgt>
<wgt id='2314'>0.86115E+02</wgt>
<wgt id='2315'>0.85939E+02</wgt>
<wgt id='2316'>0.86205E+02</wgt>
<wgt id='2317'>0.86125E+02</wgt>
<wgt id='2318'>0.86259E+02</wgt>
<wgt id='2319'>0.85976E+02</wgt>
<wgt id='2320'>0.86065E+02</wgt>
<wgt id='2321'>0.86050E+02</wgt>
<wgt id='2322'>0.86008E+02</wgt>
<wgt id='2323'>0.85924E+02</wgt>
<wgt id='2324'>0.85977E+02</wgt>
<wgt id='2325'>0.86133E+02</wgt>
<wgt id='2326'>0.86068E+02</wgt>
<wgt id='2327'>0.86158E+02</wgt>
<wgt id='2328'>0.85950E+02</wgt>
<wgt id='2329'>0.86052E+02</wgt>
<wgt id='2330'>0.86483E+02</wgt>
<wgt id='2331'>0.86228E+02</wgt>
<wgt id='2332'>0.85931E+02</wgt>
<wgt id='2333'>0.85938E+02</wgt>
<wgt id='2334'>0.86084E+02</wgt>
<wgt id='2335'>0.85586E+02</wgt>
<wgt id='2336'>0.86098E+02</wgt>
<wgt id='2337'>0.86420E+02</wgt>
<wgt id='2338'>0.86084E+02</wgt>
<wgt id='2339'>0.86054E+02</wgt>
<wgt id='2340'>0.86426E+02</wgt>
<wgt id='2341'>0.86297E+02</wgt>
<wgt id='2342'>0.85928E+02</wgt>
<wgt id='2343'>0.85931E+02</wgt>
<wgt id='2344'>0.86098E+02</wgt>
<wgt id='2345'>0.86046E+02</wgt>
<wgt id='2346'>0.86482E+02</wgt>
<wgt id='2347'>0.86126E+02</wgt>
<wgt id='2348'>0.86103E+02</wgt>
<wgt id='2349'>0.86100E+02</wgt>
<wgt id='2350'>0.85796E+02</wgt>
<wgt id='2351'>0.86251E+02</wgt>
<wgt id='2352'>0.85906E+02</wgt>
<wgt id='2353'>0.86113E+02</wgt>
<wgt id='2354'>0.86193E+02</wgt>
<wgt id='2355'>0.85935E+02</wgt>
<wgt id='2356'>0.86023E+02</wgt>
<wgt id='2357'>0.86117E+02</wgt>
<wgt id='2358'>0.85996E+02</wgt>
<wgt id='2359'>0.86025E+02</wgt>
<wgt id='2360'>0.86244E+02</wgt>
<wgt id='2361'>0.86088E+02</wgt>
<wgt id='2362'>0.86170E+02</wgt>
<wgt id='2363'>0.85991E+02</wgt>
<wgt id='2364'>0.86100E+02</wgt>
<wgt id='2365'>0.85971E+02</wgt>
<wgt id='2366'>0.86133E+02</wgt>
<wgt id='2367'>0.85927E+02</wgt>
<wgt id='2368'>0.86131E+02</wgt>
<wgt id='2369'>0.86022E+02</wgt>
<wgt id='2370'>0.86065E+02</wgt>
<wgt id='2371'>0.86039E+02</wgt>
<wgt id='2372'>0.86120E+02</wgt>
<wgt id='2373'>0.86070E+02</wgt>
<wgt id='2374'>0.86217E+02</wgt>
<wgt id='2375'>0.86132E+02</wgt>
<wgt id='2376'>0.86141E+02</wgt>
<wgt id='2377'>0.86126E+02</wgt>
<wgt id='2378'>0.86151E+02</wgt>
<wgt id='2379'>0.85990E+02</wgt>
<wgt id='2380'>0.86040E+02</wgt>
<wgt id='2381'>0.86054E+02</wgt>
<wgt id='2382'>0.86044E+02</wgt>
<wgt id='2383'>0.86049E+02</wgt>
<wgt id='2384'>0.86033E+02</wgt>
<wgt id='2385'>0.86160E+02</wgt>
<wgt id='2386'>0.86045E+02</wgt>
<wgt id='2387'>0.86011E+02</wgt>
<wgt id='2388'>0.86038E+02</wgt>
<wgt id='2389'>0.86075E+02</wgt>
<wgt id='2390'>0.86103E+02</wgt>
<wgt id='2391'>0.86073E+02</wgt>
<wgt id='2392'>0.86089E+02</wgt>
<wgt id='2393'>0.86120E+02</wgt>
<wgt id='2394'>0.86137E+02</wgt>
<wgt id='2395'>0.86098E+02</wgt>
<wgt id='2396'>0.86072E+02</wgt>
<wgt id='2397'>0.86071E+02</wgt>
<wgt id='2398'>0.86071E+02</wgt>
<wgt id='2399'>0.86108E+02</wgt>
<wgt id='2400'>0.86127E+02</wgt>
<wgt id='2401'>0.84561E+02</wgt>
<wgt id='2402'>0.87969E+02</wgt>
<wgt id='2500'>0.83440E+02</wgt>
<wgt id='2501'>0.88179E+02</wgt>
<wgt id='2600'>0.79147E+02</wgt>
<wgt id='2601'>0.79004E+02</wgt>
<wgt id='2602'>0.79056E+02</wgt>
<wgt id='2603'>0.79136E+02</wgt>
<wgt id='2604'>0.79135E+02</wgt>
<wgt id='2605'>0.79017E+02</wgt>
<wgt id='2606'>0.79162E+02</wgt>
<wgt id='2607'>0.79241E+02</wgt>
<wgt id='2608'>0.79216E+02</wgt>
<wgt id='2609'>0.79051E+02</wgt>
<wgt id='2610'>0.79082E+02</wgt>
<wgt id='2611'>0.79117E+02</wgt>
<wgt id='2612'>0.79252E+02</wgt>
<wgt id='2613'>0.79176E+02</wgt>
<wgt id='2614'>0.79077E+02</wgt>
<wgt id='2615'>0.79007E+02</wgt>
<wgt id='2616'>0.79215E+02</wgt>
<wgt id='2617'>0.78964E+02</wgt>
<wgt id='2618'>0.79188E+02</wgt>
<wgt id='2619'>0.79221E+02</wgt>
<wgt id='2620'>0.78974E+02</wgt>
<wgt id='2621'>0.79271E+02</wgt>
<wgt id='2622'>0.79395E+02</wgt>
<wgt id='2623'>0.79106E+02</wgt>
<wgt id='2624'>0.79071E+02</wgt>
<wgt id='2625'>0.79315E+02</wgt>
<wgt id='2626'>0.79233E+02</wgt>
<wgt id='2627'>0.79266E+02</wgt>
<wgt id='2628'>0.79084E+02</wgt>
<wgt id='2629'>0.79264E+02</wgt>
<wgt id='2630'>0.79377E+02</wgt>
<wgt id='2631'>0.79113E+02</wgt>
<wgt id='2632'>0.78911E+02</wgt>
<wgt id='2633'>0.79092E+02</wgt>
<wgt id='2634'>0.79096E+02</wgt>
<wgt id='2635'>0.78968E+02</wgt>
<wgt id='2636'>0.79200E+02</wgt>
<wgt id='2637'>0.79114E+02</wgt>
<wgt id='2638'>0.79102E+02</wgt>
<wgt id='2639'>0.79152E+02</wgt>
<wgt id='2640'>0.79161E+02</wgt>
<wgt id='2641'>0.79076E+02</wgt>
<wgt id='2642'>0.79145E+02</wgt>
<wgt id='2643'>0.79097E+02</wgt>
<wgt id='2644'>0.79134E+02</wgt>
<wgt id='2645'>0.79095E+02</wgt>
<wgt id='2646'>0.79142E+02</wgt>
<wgt id='2647'>0.79141E+02</wgt>
<wgt id='2648'>0.79142E+02</wgt>
<wgt id='2649'>0.79167E+02</wgt>
<wgt id='2650'>0.79163E+02</wgt>
<wgt id='2651'>0.77910E+02</wgt>
<wgt id='2652'>0.80066E+02</wgt>
<wgt id='2700'>0.76810E+02</wgt>
<wgt id='2701'>0.77910E+02</wgt>
<wgt id='2702'>0.78551E+02</wgt>
<wgt id='2703'>0.79678E+02</wgt>
<wgt id='2704'>0.80066E+02</wgt>
<wgt id='2705'>0.81362E+02</wgt>
<wgt id='2800'>0.81193E+02</wgt>
<wgt id='4000'>0.84376E+02</wgt>
<wgt id='4001'>0.84673E+02</wgt>
<wgt id='4002'>0.84471E+02</wgt>
<wgt id='4003'>0.83284E+02</wgt>
<wgt id='4004'>0.85952E+02</wgt>
<wgt id='4005'>0.84842E+02</wgt>
<wgt id='4006'>0.84159E+02</wgt>
<wgt id='4007'>0.84605E+02</wgt>
<wgt id='4008'>0.84219E+02</wgt>
<wgt id='4009'>0.83991E+02</wgt>
<wgt id='4010'>0.84326E+02</wgt>
<wgt id='4011'>0.84941E+02</wgt>
<wgt id='4012'>0.83633E+02</wgt>
<wgt id='4013'>0.84837E+02</wgt>
<wgt id='4014'>0.84150E+02</wgt>
<wgt id='4015'>0.84938E+02</wgt>
<wgt id='4016'>0.85430E+02</wgt>
<wgt id='4017'>0.84497E+02</wgt>
<wgt id='4018'>0.84294E+02</wgt>
<wgt id='4019'>0.84240E+02</wgt>
<wgt id='4020'>0.84827E+02</wgt>
<wgt id='4021'>0.84760E+02</wgt>
<wgt id='4022'>0.83717E+02</wgt>
<wgt id='4023'>0.85019E+02</wgt>
<wgt id='4024'>0.84696E+02</wgt>
<wgt id='4025'>0.84238E+02</wgt>
<wgt id='4026'>0.84868E+02</wgt>
<wgt id='4027'>0.85508E+02</wgt>
<wgt id='4028'>0.83540E+02</wgt>
<wgt id='4029'>0.85566E+02</wgt>
<wgt id='4030'>0.83596E+02</wgt>
<wgt id='4031'>0.84301E+02</wgt>
<wgt id='4032'>0.86331E+02</wgt>
<wgt id='4033'>0.85305E+02</wgt>
<wgt id='4034'>0.83701E+02</wgt>
<wgt id='4035'>0.84981E+02</wgt>
<wgt id='4036'>0.83984E+02</wgt>
<wgt id='4037'>0.87404E+02</wgt>
<wgt id='4038'>0.82090E+02</wgt>
<wgt id='4039'>0.86208E+02</wgt>
<wgt id='4040'>0.82769E+02</wgt>
<wgt id='4041'>0.84771E+02</wgt>
<wgt id='4042'>0.83933E+02</wgt>
<wgt id='4043'>0.83936E+02</wgt>
<wgt id='4044'>0.83948E+02</wgt>
<wgt id='4045'>0.84284E+02</wgt>
<wgt id='4046'>0.84549E+02</wgt>
<wgt id='4047'>0.84808E+02</wgt>
<wgt id='4048'>0.84710E+02</wgt>
<wgt id='4049'>0.84402E+02</wgt>
<wgt id='4050'>0.84541E+02</wgt>
<wgt id='4051'>0.84214E+02</wgt>
<wgt id='4052'>0.84785E+02</wgt>
<wgt id='4053'>0.84484E+02</wgt>
<wgt id='4054'>0.83685E+02</wgt>
<wgt id='4055'>0.84972E+02</wgt>
<wgt id='4056'>0.83838E+02</wgt>
<wgt id='4057'>0.83561E+02</wgt>
<wgt id='4058'>0.84893E+02</wgt>
<wgt id='4100'>0.84560E+02</wgt>
<wgt id='4101'>0.84425E+02</wgt>
<wgt id='4102'>0.84390E+02</wgt>
<wgt id='4103'>0.84443E+02</wgt>
<wgt id='4200'>0.81843E+02</wgt>
<wgt id='4201'>0.81851E+02</wgt>
<wgt id='4202'>0.82148E+02</wgt>
<wgt id='4203'>0.81372E+02</wgt>
<wgt id='4204'>0.82048E+02</wgt>
<wgt id='4205'>0.81802E+02</wgt>
<wgt id='4206'>0.82173E+02</wgt>
<wgt id='4207'>0.82480E+02</wgt>
<wgt id='4208'>0.81624E+02</wgt>
<wgt id='4209'>0.81686E+02</wgt>
<wgt id='4210'>0.82045E+02</wgt>
<wgt id='4211'>0.82352E+02</wgt>
<wgt id='4212'>0.81469E+02</wgt>
<wgt id='4213'>0.81929E+02</wgt>
<wgt id='4214'>0.81726E+02</wgt>
<wgt id='4215'>0.81922E+02</wgt>
<wgt id='4216'>0.81992E+02</wgt>
<wgt id='4217'>0.81827E+02</wgt>
<wgt id='4218'>0.81786E+02</wgt>
<wgt id='4219'>0.81623E+02</wgt>
<wgt id='4220'>0.82192E+02</wgt>
<wgt id='4221'>0.81645E+02</wgt>
<wgt id='4222'>0.82430E+02</wgt>
<wgt id='4223'>0.80858E+02</wgt>
<wgt id='4224'>0.81489E+02</wgt>
<wgt id='4225'>0.81161E+02</wgt>
<wgt id='4226'>0.83048E+02</wgt>
<wgt id='4227'>0.82796E+02</wgt>
<wgt id='4228'>0.81065E+02</wgt>
<wgt id='4229'>0.80388E+02</wgt>
<wgt id='4230'>0.83159E+02</wgt>
<wgt id='4231'>0.82483E+02</wgt>
<wgt id='4232'>0.80876E+02</wgt>
<wgt id='4233'>0.82248E+02</wgt>
<wgt id='4234'>0.80785E+02</wgt>
<wgt id='4235'>0.82923E+02</wgt>
<wgt id='4236'>0.80836E+02</wgt>
<wgt id='4237'>0.83257E+02</wgt>
<wgt id='4238'>0.79678E+02</wgt>
<wgt id='4239'>0.81673E+02</wgt>
<wgt id='4240'>0.81847E+02</wgt>
<wgt id='4241'>0.82069E+02</wgt>
<wgt id='4242'>0.81597E+02</wgt>
<wgt id='4243'>0.82227E+02</wgt>
<wgt id='4244'>0.81739E+02</wgt>
<wgt id='4245'>0.81945E+02</wgt>
<wgt id='4246'>0.81267E+02</wgt>
<wgt id='4247'>0.81026E+02</wgt>
<wgt id='4248'>0.82278E+02</wgt>
<wgt id='4249'>0.83011E+02</wgt>
<wgt id='4250'>0.80549E+02</wgt>
<wgt id='4251'>0.83520E+02</wgt>
<wgt id='4252'>0.80789E+02</wgt>
<wgt id='4253'>0.82844E+02</wgt>
<wgt id='4254'>0.80602E+02</wgt>
<wgt id='4255'>0.83388E+02</wgt>
<wgt id='4256'>0.81209E+02</wgt>
<wgt id='4257'>0.80394E+02</wgt>
<wgt id='4258'>0.82255E+02</wgt>
<wgt id='4300'>0.83383E+02</wgt>
<wgt id='4301'>0.83785E+02</wgt>
<wgt id='5000'>0.83220E+02</wgt>
<wgt id='5001'>0.83262E+02</wgt>
<wgt id='5002'>0.83165E+02</wgt>
<wgt id='5003'>0.83240E+02</wgt>
<wgt id='5004'>0.83201E+02</wgt>
<wgt id='5005'>0.83225E+02</wgt>
<wgt id='5006'>0.83212E+02</wgt>
<wgt id='5007'>0.83302E+02</wgt>
<wgt id='5008'>0.83152E+02</wgt>
<wgt id='5009'>0.83329E+02</wgt>
<wgt id='5010'>0.83107E+02</wgt>
<wgt id='5011'>0.83485E+02</wgt>
<wgt id='5012'>0.82964E+02</wgt>
<wgt id='5013'>0.83395E+02</wgt>
<wgt id='5014'>0.83095E+02</wgt>
<wgt id='5015'>0.82816E+02</wgt>
<wgt id='5016'>0.82816E+02</wgt>
<wgt id='5017'>0.83515E+02</wgt>
<wgt id='5018'>0.83021E+02</wgt>
<wgt id='5019'>0.83457E+02</wgt>
<wgt id='5020'>0.82893E+02</wgt>
<wgt id='5021'>0.83297E+02</wgt>
<wgt id='5022'>0.83099E+02</wgt>
<wgt id='5023'>0.83196E+02</wgt>
<wgt id='5024'>0.83274E+02</wgt>
<wgt id='5025'>0.83093E+02</wgt>
<wgt id='5026'>0.83357E+02</wgt>
<wgt id='5027'>0.83289E+02</wgt>
<wgt id='5028'>0.83034E+02</wgt>
<wgt id='5029'>0.84374E+02</wgt>
<wgt id='5030'>0.82573E+02</wgt>
<wgt id='5031'>0.82540E+02</wgt>
<wgt id='5032'>0.85320E+02</wgt>
<wgt id='5033'>0.83121E+02</wgt>
<wgt id='5034'>0.83325E+02</wgt>
<wgt id='5035'>0.83238E+02</wgt>
<wgt id='5036'>0.83196E+02</wgt>
<wgt id='5037'>0.82900E+02</wgt>
<wgt id='5038'>0.83399E+02</wgt>
<wgt id='5039'>0.83396E+02</wgt>
<wgt id='5040'>0.82776E+02</wgt>
<wgt id='5041'>0.82849E+02</wgt>
<wgt id='5042'>0.83623E+02</wgt>
<wgt id='5043'>0.83441E+02</wgt>
<wgt id='5044'>0.83041E+02</wgt>
<wgt id='5045'>0.83568E+02</wgt>
<wgt id='5046'>0.82658E+02</wgt>
<wgt id='5047'>0.83336E+02</wgt>
<wgt id='5048'>0.82709E+02</wgt>
<wgt id='5049'>0.83107E+02</wgt>
<wgt id='5050'>0.83486E+02</wgt>
<wgt id='5051'>0.83477E+02</wgt>
<wgt id='5052'>0.83053E+02</wgt>
<wgt id='5053'>0.83563E+02</wgt>
<wgt id='5054'>0.83348E+02</wgt>
<wgt id='5055'>0.83231E+02</wgt>
<wgt id='5056'>0.83292E+02</wgt>
<wgt id='5057'>0.82825E+02</wgt>
<wgt id='5058'>0.83498E+02</wgt>
<wgt id='5059'>0.83039E+02</wgt>
<wgt id='5060'>0.83321E+02</wgt>
<wgt id='5061'>0.83464E+02</wgt>
<wgt id='5062'>0.83512E+02</wgt>
<wgt id='5063'>0.83488E+02</wgt>
<wgt id='5064'>0.83344E+02</wgt>
<wgt id='5100'>0.83220E+02</wgt>
<wgt id='5101'>0.83208E+02</wgt>
<wgt id='6000'>0.82818E+02</wgt>
<wgt id='6001'>0.82382E+02</wgt>
<wgt id='6002'>0.81968E+02</wgt>
<wgt id='6003'>0.82535E+02</wgt>
<wgt id='6004'>0.83314E+02</wgt>
<wgt id='6005'>0.82212E+02</wgt>
<wgt id='6006'>0.82865E+02</wgt>
<wgt id='6007'>0.82133E+02</wgt>
<wgt id='6008'>0.83221E+02</wgt>
<wgt id='6009'>0.82767E+02</wgt>
<wgt id='6010'>0.82964E+02</wgt>
<wgt id='6011'>0.82773E+02</wgt>
<wgt id='6012'>0.83090E+02</wgt>
<wgt id='6013'>0.82371E+02</wgt>
<wgt id='6014'>0.82391E+02</wgt>
<wgt id='6015'>0.81870E+02</wgt>
<wgt id='6016'>0.83290E+02</wgt>
<wgt id='6017'>0.82457E+02</wgt>
<wgt id='6018'>0.82113E+02</wgt>
<wgt id='6019'>0.83026E+02</wgt>
<wgt id='6020'>0.82989E+02</wgt>
<wgt id='6021'>0.82754E+02</wgt>
<wgt id='6022'>0.83181E+02</wgt>
<wgt id='6023'>0.82798E+02</wgt>
<wgt id='6024'>0.82964E+02</wgt>
<wgt id='6025'>0.83362E+02</wgt>
<wgt id='6026'>0.82718E+02</wgt>
<wgt id='6027'>0.82884E+02</wgt>
<wgt id='6028'>0.82291E+02</wgt>
<wgt id='6029'>0.82527E+02</wgt>
<wgt id='6030'>0.82414E+02</wgt>
<wgt id='6031'>0.82502E+02</wgt>
<wgt id='6032'>0.82800E+02</wgt>
<wgt id='6033'>0.82696E+02</wgt>
<wgt id='6034'>0.83286E+02</wgt>
<wgt id='6035'>0.82895E+02</wgt>
<wgt id='6036'>0.83668E+02</wgt>
<wgt id='6037'>0.82811E+02</wgt>
<wgt id='6038'>0.82737E+02</wgt>
<wgt id='6039'>0.83147E+02</wgt>
<wgt id='6040'>0.82826E+02</wgt>
<wgt id='6041'>0.80819E+02</wgt>
<wgt id='6042'>0.82880E+02</wgt>
<wgt id='7000'>0.79428E+02</wgt>
<wgt id='7001'>0.78056E+02</wgt>
<wgt id='7002'>0.78221E+02</wgt>
<wgt id='7003'>0.78094E+02</wgt>
<wgt id='7004'>0.78183E+02</wgt>
<wgt id='7005'>0.78161E+02</wgt>
<wgt id='7006'>0.78116E+02</wgt>
<wgt id='7007'>0.78579E+02</wgt>
<wgt id='7008'>0.77711E+02</wgt>
<wgt id='7009'>0.77742E+02</wgt>
<wgt id='7010'>0.78549E+02</wgt>
<wgt id='7011'>0.78376E+02</wgt>
<wgt id='7012'>0.77909E+02</wgt>
<wgt id='7013'>0.78141E+02</wgt>
<wgt id='7014'>0.78129E+02</wgt>
<wgt id='7015'>0.78283E+02</wgt>
<wgt id='7016'>0.77800E+02</wgt>
<wgt id='7017'>0.78021E+02</wgt>
<wgt id='7018'>0.78271E+02</wgt>
<wgt id='7019'>0.78492E+02</wgt>
<wgt id='7020'>0.77807E+02</wgt>
<wgt id='7021'>0.79403E+02</wgt>
<wgt id='7022'>0.76965E+02</wgt>
<wgt id='7023'>0.77056E+02</wgt>
<wgt id='7024'>0.79239E+02</wgt>
<wgt id='7025'>0.76597E+02</wgt>
<wgt id='7026'>0.79677E+02</wgt>
<wgt id='7027'>0.77427E+02</wgt>
<wgt id='7028'>0.78907E+02</wgt>
<wgt id='8000'>0.80545E+02</wgt>
<wgt id='8001'>0.80542E+02</wgt>
<wgt id='8002'>0.80567E+02</wgt>
<wgt id='8003'>0.80543E+02</wgt>
<wgt id='8004'>0.80542E+02</wgt>
<wgt id='8005'>0.80416E+02</wgt>
<wgt id='8006'>0.80671E+02</wgt>
<wgt id='8007'>0.80770E+02</wgt>
<wgt id='8008'>0.80702E+02</wgt>
<wgt id='8009'>0.80846E+02</wgt>
<wgt id='8010'>0.80436E+02</wgt>
<wgt id='8011'>0.80593E+02</wgt>
<wgt id='8012'>0.80235E+02</wgt>
<wgt id='8013'>0.80360E+02</wgt>
<wgt id='8014'>0.80792E+02</wgt>
<wgt id='8015'>0.80501E+02</wgt>
<wgt id='8016'>0.80672E+02</wgt>
<wgt id='8017'>0.80682E+02</wgt>
<wgt id='8018'>0.80878E+02</wgt>
<wgt id='8019'>0.80354E+02</wgt>
<wgt id='8020'>0.80918E+02</wgt>
<wgt id='8021'>0.80369E+02</wgt>
<wgt id='8022'>0.81216E+02</wgt>
<wgt id='8023'>0.80200E+02</wgt>
<wgt id='8024'>0.79871E+02</wgt>
<wgt id='8025'>0.80019E+02</wgt>
<wgt id='8026'>0.80511E+02</wgt>
<wgt id='8027'>0.80747E+02</wgt>
<wgt id='8028'>0.80549E+02</wgt>
<wgt id='8029'>0.82376E+02</wgt>
<wgt id='3000'>0.81104E+02</wgt>
<wgt id='3001'>0.83039E+02</wgt>
<wgt id='3002'>0.80366E+02</wgt>
<wgt id='3003'>0.82401E+02</wgt>
<wgt id='3004'>0.81956E+02</wgt>
<wgt id='3005'>0.81515E+02</wgt>
<wgt id='3006'>0.82111E+02</wgt>
<wgt id='3007'>0.78913E+02</wgt>
<wgt id='3008'>0.78372E+02</wgt>
<wgt id='3009'>0.80759E+02</wgt>
<wgt id='3010'>0.85725E+02</wgt>
<wgt id='3011'>0.82157E+02</wgt>
<wgt id='3012'>0.80118E+02</wgt>
<wgt id='3013'>0.80733E+02</wgt>
<wgt id='3014'>0.80596E+02</wgt>
<wgt id='3015'>0.80196E+02</wgt>
<wgt id='3016'>0.80841E+02</wgt>
<wgt id='3017'>0.81487E+02</wgt>
<wgt id='3018'>0.79166E+02</wgt>
<wgt id='3019'>0.79734E+02</wgt>
<wgt id='3020'>0.80240E+02</wgt>
<wgt id='3021'>0.80228E+02</wgt>
<wgt id='3022'>0.79068E+02</wgt>
<wgt id='3023'>0.79379E+02</wgt>
<wgt id='3024'>0.80567E+02</wgt>
<wgt id='3025'>0.79132E+02</wgt>
<wgt id='3026'>0.80023E+02</wgt>
<wgt id='3027'>0.82783E+02</wgt>
<wgt id='3028'>0.78732E+02</wgt>
<wgt id='3029'>0.81514E+02</wgt>
<wgt id='3030'>0.81282E+02</wgt>
<wgt id='3031'>0.83656E+02</wgt>
<wgt id='3032'>0.80472E+02</wgt>
<wgt id='3033'>0.79920E+02</wgt>
<wgt id='3034'>0.81597E+02</wgt>
<wgt id='3035'>0.83197E+02</wgt>
<wgt id='3036'>0.81313E+02</wgt>
<wgt id='3037'>0.79821E+02</wgt>
<wgt id='3038'>0.81071E+02</wgt>
<wgt id='3039'>0.81868E+02</wgt>
<wgt id='3040'>0.80516E+02</wgt>
<wgt id='3041'>0.81195E+02</wgt>
<wgt id='3042'>0.81192E+02</wgt>
<wgt id='3043'>0.82391E+02</wgt>
<wgt id='3044'>0.82248E+02</wgt>
<wgt id='3045'>0.81063E+02</wgt>
<wgt id='3046'>0.81103E+02</wgt>
<wgt id='3047'>0.81305E+02</wgt>
<wgt id='3048'>0.81598E+02</wgt>
<wgt id='3049'>0.82167E+02</wgt>
<wgt id='3050'>0.82859E+02</wgt>
<wgt id='3051'>0.81219E+02</wgt>
<wgt id='3052'>0.79721E+02</wgt>
<wgt id='3053'>0.82563E+02</wgt>
<wgt id='3054'>0.80112E+02</wgt>
<wgt id='3055'>0.80328E+02</wgt>
<wgt id='3056'>0.80569E+02</wgt>
<wgt id='3057'>0.79832E+02</wgt>
<wgt id='3058'>0.82194E+02</wgt>
<wgt id='3059'>0.79702E+02</wgt>
<wgt id='3060'>0.80616E+02</wgt>
<wgt id='3061'>0.81250E+02</wgt>
<wgt id='3062'>0.81581E+02</wgt>
<wgt id='3063'>0.80496E+02</wgt>
<wgt id='3064'>0.82278E+02</wgt>
<wgt id='3065'>0.79160E+02</wgt>
<wgt id='3066'>0.81989E+02</wgt>
<wgt id='3067'>0.80408E+02</wgt>
<wgt id='3068'>0.80432E+02</wgt>
<wgt id='3069'>0.80551E+02</wgt>
<wgt id='3070'>0.82214E+02</wgt>
<wgt id='3071'>0.81678E+02</wgt>
<wgt id='3072'>0.82089E+02</wgt>
<wgt id='3073'>0.80603E+02</wgt>
<wgt id='3074'>0.80469E+02</wgt>
<wgt id='3075'>0.81469E+02</wgt>
<wgt id='3076'>0.83696E+02</wgt>
<wgt id='3077'>0.81618E+02</wgt>
<wgt id='3078'>0.80935E+02</wgt>
<wgt id='3079'>0.81196E+02</wgt>
<wgt id='3080'>0.84142E+02</wgt>
<wgt id='3081'>0.81633E+02</wgt>
<wgt id='3082'>0.80841E+02</wgt>
<wgt id='3083'>0.81555E+02</wgt>
<wgt id='3084'>0.79783E+02</wgt>
<wgt id='3085'>0.81330E+02</wgt>
<wgt id='3086'>0.82748E+02</wgt>
<wgt id='3087'>0.80162E+02</wgt>
<wgt id='3088'>0.81635E+02</wgt>
<wgt id='3089'>0.82471E+02</wgt>
<wgt id='3090'>0.80305E+02</wgt>
<wgt id='3091'>0.79844E+02</wgt>
<wgt id='3092'>0.81992E+02</wgt>
<wgt id='3093'>0.81063E+02</wgt>
<wgt id='3094'>0.81580E+02</wgt>
<wgt id='3095'>0.79488E+02</wgt>
<wgt id='3096'>0.80537E+02</wgt>
<wgt id='3097'>0.84898E+02</wgt>
<wgt id='3098'>0.80791E+02</wgt>
<wgt id='3099'>0.78919E+02</wgt>
<wgt id='3100'>0.79635E+02</wgt>
<wgt id='3200'>0.79280E+02</wgt>
<wgt id='3201'>0.79046E+02</wgt>
<wgt id='3202'>0.77721E+02</wgt>
<wgt id='3203'>0.79842E+02</wgt>
<wgt id='3204'>0.79384E+02</wgt>
<wgt id='3205'>0.79960E+02</wgt>
<wgt id='3206'>0.79997E+02</wgt>
<wgt id='3207'>0.79656E+02</wgt>
<wgt id='3208'>0.79234E+02</wgt>
<wgt id='3209'>0.79410E+02</wgt>
<wgt id='3210'>0.79330E+02</wgt>
<wgt id='3211'>0.79131E+02</wgt>
<wgt id='3212'>0.79164E+02</wgt>
<wgt id='3213'>0.79846E+02</wgt>
<wgt id='3214'>0.79124E+02</wgt>
<wgt id='3215'>0.78969E+02</wgt>
<wgt id='3216'>0.80100E+02</wgt>
<wgt id='3217'>0.79328E+02</wgt>
<wgt id='3218'>0.80088E+02</wgt>
<wgt id='3219'>0.78603E+02</wgt>
<wgt id='3220'>0.78646E+02</wgt>
<wgt id='3221'>0.79151E+02</wgt>
<wgt id='3222'>0.80154E+02</wgt>
<wgt id='3223'>0.79378E+02</wgt>
<wgt id='3224'>0.78984E+02</wgt>
<wgt id='3225'>0.79744E+02</wgt>
<wgt id='3226'>0.78966E+02</wgt>
<wgt id='3227'>0.78811E+02</wgt>
<wgt id='3228'>0.78862E+02</wgt>
<wgt id='3229'>0.80132E+02</wgt>
<wgt id='3230'>0.79710E+02</wgt>
<wgt id='3231'>0.79551E+02</wgt>
<wgt id='3232'>0.79679E+02</wgt>
<wgt id='3233'>0.79560E+02</wgt>
<wgt id='3234'>0.78070E+02</wgt>
<wgt id='3235'>0.79107E+02</wgt>
<wgt id='3236'>0.80014E+02</wgt>
<wgt id='3237'>0.79313E+02</wgt>
<wgt id='3238'>0.79528E+02</wgt>
<wgt id='3239'>0.78082E+02</wgt>
<wgt id='3240'>0.77905E+02</wgt>
<wgt id='3241'>0.80020E+02</wgt>
<wgt id='3242'>0.79899E+02</wgt>
<wgt id='3243'>0.79682E+02</wgt>
<wgt id='3244'>0.79793E+02</wgt>
<wgt id='3245'>0.80154E+02</wgt>
<wgt id='3246'>0.78124E+02</wgt>
<wgt id='3247'>0.78172E+02</wgt>
<wgt id='3248'>0.79167E+02</wgt>
<wgt id='3249'>0.78474E+02</wgt>
<wgt id='3250'>0.78480E+02</wgt>
<wgt id='3251'>0.78973E+02</wgt>
<wgt id='3252'>0.80499E+02</wgt>
<wgt id='3253'>0.79961E+02</wgt>
<wgt id='3254'>0.78823E+02</wgt>
<wgt id='3255'>0.78213E+02</wgt>
<wgt id='3256'>0.79054E+02</wgt>
<wgt id='3257'>0.78741E+02</wgt>
<wgt id='3258'>0.78570E+02</wgt>
<wgt id='3259'>0.78647E+02</wgt>
<wgt id='3260'>0.79692E+02</wgt>
<wgt id='3261'>0.78983E+02</wgt>
<wgt id='3262'>0.80358E+02</wgt>
<wgt id='3263'>0.79404E+02</wgt>
<wgt id='3264'>0.79877E+02</wgt>
<wgt id='3265'>0.79850E+02</wgt>
<wgt id='3266'>0.79313E+02</wgt>
<wgt id='3267'>0.79427E+02</wgt>
<wgt id='3268'>0.78116E+02</wgt>
<wgt id='3269'>0.78834E+02</wgt>
<wgt id='3270'>0.80394E+02</wgt>
<wgt id='3271'>0.78926E+02</wgt>
<wgt id='3272'>0.79461E+02</wgt>
<wgt id='3273'>0.79428E+02</wgt>
<wgt id='3274'>0.79429E+02</wgt>
<wgt id='3275'>0.80175E+02</wgt>
<wgt id='3276'>0.78346E+02</wgt>
<wgt id='3277'>0.78664E+02</wgt>
<wgt id='3278'>0.80257E+02</wgt>
<wgt id='3279'>0.79633E+02</wgt>
<wgt id='3280'>0.79140E+02</wgt>
<wgt id='3281'>0.80382E+02</wgt>
<wgt id='3282'>0.79381E+02</wgt>
<wgt id='3283'>0.79899E+02</wgt>
<wgt id='3284'>0.78493E+02</wgt>
<wgt id='3285'>0.79415E+02</wgt>
<wgt id='3286'>0.78291E+02</wgt>
<wgt id='3287'>0.80843E+02</wgt>
<wgt id='3288'>0.78189E+02</wgt>
<wgt id='3289'>0.79929E+02</wgt>
<wgt id='3290'>0.78741E+02</wgt>
<wgt id='3291'>0.78607E+02</wgt>
<wgt id='3292'>0.78358E+02</wgt>
<wgt id='3293'>0.79295E+02</wgt>
<wgt id='3294'>0.79335E+02</wgt>
<wgt id='3295'>0.78517E+02</wgt>
<wgt id='3296'>0.80183E+02</wgt>
<wgt id='3297'>0.79361E+02</wgt>
<wgt id='3298'>0.78221E+02</wgt>
<wgt id='3299'>0.79615E+02</wgt>
<wgt id='3300'>0.80413E+02</wgt>
<wgt id='3301'>0.77910E+02</wgt>
<wgt id='3302'>0.80066E+02</wgt>
<wgt id='3400'>0.79094E+02</wgt>
<wgt id='3401'>0.80000E+02</wgt>
<wgt id='3402'>0.77703E+02</wgt>
<wgt id='3403'>0.79658E+02</wgt>
<wgt id='3404'>0.80034E+02</wgt>
<wgt id='3405'>0.79996E+02</wgt>
<wgt id='3406'>0.79667E+02</wgt>
<wgt id='3407'>0.78636E+02</wgt>
<wgt id='3408'>0.79578E+02</wgt>
<wgt id='3409'>0.79178E+02</wgt>
<wgt id='3410'>0.80026E+02</wgt>
<wgt id='3411'>0.79905E+02</wgt>
<wgt id='3412'>0.79533E+02</wgt>
<wgt id='3413'>0.78747E+02</wgt>
<wgt id='3414'>0.79081E+02</wgt>
<wgt id='3415'>0.79388E+02</wgt>
<wgt id='3416'>0.79072E+02</wgt>
<wgt id='3417'>0.79265E+02</wgt>
<wgt id='3418'>0.78724E+02</wgt>
<wgt id='3419'>0.78667E+02</wgt>
<wgt id='3420'>0.78862E+02</wgt>
<wgt id='3421'>0.78802E+02</wgt>
<wgt id='3422'>0.78267E+02</wgt>
<wgt id='3423'>0.81040E+02</wgt>
<wgt id='3424'>0.79400E+02</wgt>
<wgt id='3425'>0.78652E+02</wgt>
<wgt id='3426'>0.78690E+02</wgt>
<wgt id='3427'>0.78432E+02</wgt>
<wgt id='3428'>0.78596E+02</wgt>
<wgt id='3429'>0.78167E+02</wgt>
<wgt id='3430'>0.78770E+02</wgt>
<wgt id='3431'>0.79391E+02</wgt>
<wgt id='3432'>0.79708E+02</wgt>
<wgt id='3433'>0.78927E+02</wgt>
<wgt id='3434'>0.80663E+02</wgt>
<wgt id='3435'>0.80394E+02</wgt>
<wgt id='3436'>0.79227E+02</wgt>
<wgt id='3437'>0.79990E+02</wgt>
<wgt id='3438'>0.78481E+02</wgt>
<wgt id='3439'>0.77671E+02</wgt>
<wgt id='3440'>0.79596E+02</wgt>
<wgt id='3441'>0.79744E+02</wgt>
<wgt id='3442'>0.79124E+02</wgt>
<wgt id='3443'>0.79784E+02</wgt>
<wgt id='3444'>0.78571E+02</wgt>
<wgt id='3445'>0.78216E+02</wgt>
<wgt id='3446'>0.79713E+02</wgt>
<wgt id='3447'>0.79172E+02</wgt>
<wgt id='3448'>0.79787E+02</wgt>
<wgt id='3449'>0.79372E+02</wgt>
<wgt id='3450'>0.78580E+02</wgt>
<wgt id='3451'>0.79510E+02</wgt>
<wgt id='3452'>0.78626E+02</wgt>
<wgt id='3453'>0.77630E+02</wgt>
<wgt id='3454'>0.78952E+02</wgt>
<wgt id='3455'>0.79941E+02</wgt>
<wgt id='3456'>0.79056E+02</wgt>
<wgt id='3457'>0.79231E+02</wgt>
<wgt id='3458'>0.78481E+02</wgt>
<wgt id='3459'>0.79391E+02</wgt>
<wgt id='3460'>0.78925E+02</wgt>
<wgt id='3461'>0.78516E+02</wgt>
<wgt id='3462'>0.79289E+02</wgt>
<wgt id='3463'>0.78280E+02</wgt>
<wgt id='3464'>0.78866E+02</wgt>
<wgt id='3465'>0.79216E+02</wgt>
<wgt id='3466'>0.79952E+02</wgt>
<wgt id='3467'>0.78518E+02</wgt>
<wgt id='3468'>0.78824E+02</wgt>
<wgt id='3469'>0.77834E+02</wgt>
<wgt id='3470'>0.78529E+02</wgt>
<wgt id='3471'>0.78470E+02</wgt>
<wgt id='3472'>0.77589E+02</wgt>
<wgt id='3473'>0.80736E+02</wgt>
<wgt id='3474'>0.78589E+02</wgt>
<wgt id='3475'>0.79380E+02</wgt>
<wgt id='3476'>0.79089E+02</wgt>
<wgt id='3477'>0.77983E+02</wgt>
<wgt id='3478'>0.80007E+02</wgt>
<wgt id='3479'>0.78506E+02</wgt>
<wgt id='3480'>0.79093E+02</wgt>
<wgt id='3481'>0.79920E+02</wgt>
<wgt id='3482'>0.79358E+02</wgt>
<wgt id='3483'>0.78972E+02</wgt>
<wgt id='3484'>0.78761E+02</wgt>
<wgt id='3485'>0.78269E+02</wgt>
<wgt id='3486'>0.77450E+02</wgt>
<wgt id='3487'>0.78300E+02</wgt>
<wgt id='3488'>0.78758E+02</wgt>
<wgt id='3489'>0.78156E+02</wgt>
<wgt id='3490'>0.80258E+02</wgt>
<wgt id='3491'>0.80152E+02</wgt>
<wgt id='3492'>0.78936E+02</wgt>
<wgt id='3493'>0.80230E+02</wgt>
<wgt id='3494'>0.77472E+02</wgt>
<wgt id='3495'>0.80234E+02</wgt>
<wgt id='3496'>0.77939E+02</wgt>
<wgt id='3497'>0.78929E+02</wgt>
<wgt id='3498'>0.79771E+02</wgt>
<wgt id='3499'>0.79361E+02</wgt>
<wgt id='3500'>0.80461E+02</wgt>
</rwgt>
</event>
<event>
     13 322200  8.11039E+01  1.19964E+02 -1.00000E+00  1.18876E-01
      21    -1     0     0   502   503  0.000000000E+00  0.000000000E+00  5.893347932E+02  5.893347932E+02  0.000000000E+00  0.00000E+00  9.000E+00
       2    -1     0     0   503     0  0.000000000E+00  0.000000000E+00 -6.964451031E+02  6.964451031E+02  0.000000000E+00  0.00000E+00  9.000E+00
       6     2     1     2   502     0 -1.283825974E+02 -4.090811757E+01 -2.831148510E+01  2.203429645E+02  1.720288244E+02  0.00000E+00  9.000E+00
      -6     2     1     2     0   512  2.914941732E+01  1.083175046E+02  4.650617392E+02  5.085028184E+02  1.723668319E+02  0.00000E+00  9.000E+00
       2     1     1     2   512     0  9.923318008E+01 -6.740938705E+01 -5.438605640E+02  5.569341134E+02  2.100000000E-01  0.00000E+00  9.000E+00
      24     2     3     3     0     0 -1.038050764E+01  2.718532745E+01  1.039681292E+01  7.862089010E+01  7.229352443E+01  0.00000E+00  9.000E+00
       5     1     3     3   502     0 -1.180020898E+02 -6.809344501E+01 -3.870829802E+01  1.417220744E+02  5.060000000E+00  0.00000E+00 -1.000E+00
     -24     2     4     4     0     0  3.688616578E+01  5.575389621E+01  1.095491952E+02  1.490065559E+02  7.571552929E+01  0.00000E+00  9.000E+00
      -5     1     4     4     0   512 -7.736748460E+00  5.256360841E+01  3.555125440E+02  3.594962625E+02  5.060000000E+00  0.00000E+00  1.000E+00
     -15     1     6     6     0     0  2.517434174E+01  1.665813905E+01  2.453082842E+01  3.893790378E+01  1.777000000E+00  0.00000E+00  1.000E+00
      16     1     6     6     0     0 -3.555484937E+01  1.052718840E+01 -1.413401550E+01  3.968298633E+01  0.000000000E+00  0.00000E+00 -1.000E+00
      11     1     8     8     0     0 -2.152599400E+00  1.763246849E+01 -7.946061747E+00  1.945963841E+01  5.100000000E-04  0.00000E+00 -1.000E+00
     -12     1     8     8     0     0  3.903876518E+01  3.812142771E+01  1.174952569E+02  1.295469175E+02  0.000000000E+00  0.00000E+00  1.000E+00
#rwgt            1           1   528.70954003617942               10        7309           0
<rwgt>
<wgt id='1001'>0.81104E+02</wgt>
<wgt id='1002'>0.81117E+02</wgt>
<wgt id='1003'>0.80992E+02</wgt>
<wgt id='1004'>0.72272E+02</wgt>
<wgt id='1005'>0.71604E+02</wgt>
<wgt id='1006'>0.72913E+02</wgt>
<wgt id='1007'>0.91078E+02</wgt>
<wgt id='1008'>0.92275E+02</wgt>
<wgt id='1009'>0.89663E+02</wgt>
<wgt id='2000'>0.81104E+02</wgt>
<wgt id='2001'>0.81039E+02</wgt>
<wgt id='2002'>0.80917E+02</wgt>
<wgt id='2003'>0.81175E+02</wgt>
<wgt id='2004'>0.81274E+02</wgt>
<wgt id='2005'>0.81065E+02</wgt>
<wgt id='2006'>0.81261E+02</wgt>
<wgt id='2007'>0.81195E+02</wgt>
<wgt id='2008'>0.81322E+02</wgt>
<wgt id='2009'>0.81016E+02</wgt>
<wgt id='2010'>0.81030E+02</wgt>
<wgt id='2011'>0.80960E+02</wgt>
<wgt id='2012'>0.81205E+02</wgt>
<wgt id='2013'>0.81205E+02</wgt>
<wgt id='2014'>0.81284E+02</wgt>
<wgt id='2015'>0.81248E+02</wgt>
<wgt id='2016'>0.81193E+02</wgt>
<wgt id='2017'>0.81231E+02</wgt>
<wgt id='2018'>0.81112E+02</wgt>
<wgt id='2019'>0.80880E+02</wgt>
<wgt id='2020'>0.81112E+02</wgt>
<wgt id='2021'>0.80996E+02</wgt>
<wgt id='2022'>0.81197E+02</wgt>
<wgt id='2023'>0.81314E+02</wgt>
<wgt id='2024'>0.80913E+02</wgt>
<wgt id='2025'>0.80999E+02</wgt>
<wgt id='2026'>0.80996E+02</wgt>
<wgt id='2027'>0.80896E+02</wgt>
<wgt id='2028'>0.81189E+02</wgt>
<wgt id='2029'>0.80763E+02</wgt>
<wgt id='2030'>0.81141E+02</wgt>
<wgt id='2031'>0.80785E+02</wgt>
<wgt id='2032'>0.81170E+02</wgt>
<wgt id='2033'>0.80997E+02</wgt>
<wgt id='2034'>0.80922E+02</wgt>
<wgt id='2035'>0.81107E+02</wgt>
<wgt id='2036'>0.81299E+02</wgt>
<wgt id='2037'>0.81087E+02</wgt>
<wgt id='2038'>0.81032E+02</wgt>
<wgt id='2039'>0.81088E+02</wgt>
<wgt id='2040'>0.81046E+02</wgt>
<wgt id='2041'>0.81057E+02</wgt>
<wgt id='2042'>0.81182E+02</wgt>
<wgt id='2043'>0.81046E+02</wgt>
<wgt id='2044'>0.81175E+02</wgt>
<wgt id='2045'>0.81107E+02</wgt>
<wgt id='2046'>0.81098E+02</wgt>
<wgt id='2047'>0.81096E+02</wgt>
<wgt id='2048'>0.81078E+02</wgt>
<wgt id='2049'>0.81029E+02</wgt>
<wgt id='2050'>0.81061E+02</wgt>
<wgt id='2051'>0.81078E+02</wgt>
<wgt id='2052'>0.81184E+02</wgt>
<wgt id='2053'>0.81096E+02</wgt>
<wgt id='2054'>0.81100E+02</wgt>
<wgt id='2055'>0.81109E+02</wgt>
<wgt id='2056'>0.81046E+02</wgt>
<wgt id='2057'>0.81134E+02</wgt>
<wgt id='2058'>0.81128E+02</wgt>
<wgt id='2059'>0.81094E+02</wgt>
<wgt id='2060'>0.81101E+02</wgt>
<wgt id='2061'>0.81083E+02</wgt>
<wgt id='2062'>0.81169E+02</wgt>
<wgt id='2063'>0.81126E+02</wgt>
<wgt id='2064'>0.81117E+02</wgt>
<wgt id='2065'>0.81179E+02</wgt>
<wgt id='2066'>0.81084E+02</wgt>
<wgt id='2067'>0.81118E+02</wgt>
<wgt id='2068'>0.81124E+02</wgt>
<wgt id='2069'>0.81106E+02</wgt>
<wgt id='2070'>0.81113E+02</wgt>
<wgt id='2071'>0.81097E+02</wgt>
<wgt id='2072'>0.81100E+02</wgt>
<wgt id='2073'>0.81119E+02</wgt>
<wgt id='2074'>0.81087E+02</wgt>
<wgt id='2075'>0.81087E+02</wgt>
<wgt id='2076'>0.81088E+02</wgt>
<wgt id='2077'>0.81149E+02</wgt>
<wgt id='2078'>0.81118E+02</wgt>
<wgt id='2079'>0.81085E+02</wgt>
<wgt id='2080'>0.81115E+02</wgt>
<wgt id='2081'>0.81096E+02</wgt>
<wgt id='2082'>0.81116E+02</wgt>
<wgt id='2083'>0.81137E+02</wgt>
<wgt id='2084'>0.81108E+02</wgt>
<wgt id='2085'>0.81107E+02</wgt>
<wgt id='2086'>0.81091E+02</wgt>
<wgt id='2087'>0.81116E+02</wgt>
<wgt id='2088'>0.81100E+02</wgt>
<wgt id='2089'>0.81090E+02</wgt>
<wgt id='2090'>0.81120E+02</wgt>
<wgt id='2091'>0.81105E+02</wgt>
<wgt id='2092'>0.81127E+02</wgt>
<wgt id='2093'>0.81089E+02</wgt>
<wgt id='2094'>0.81109E+02</wgt>
<wgt id='2095'>0.81123E+02</wgt>
<wgt id='2096'>0.81094E+02</wgt>
<wgt id='2097'>0.81118E+02</wgt>
<wgt id='2098'>0.81100E+02</wgt>
<wgt id='2099'>0.81114E+02</wgt>
<wgt id='2100'>0.81104E+02</wgt>
<wgt id='2101'>0.79077E+02</wgt>
<wgt id='2102'>0.83342E+02</wgt>
<wgt id='2200'>0.81195E+02</wgt>
<wgt id='2201'>0.71146E+02</wgt>
<wgt id='2202'>0.73184E+02</wgt>
<wgt id='2203'>0.75155E+02</wgt>
<wgt id='2204'>0.76981E+02</wgt>
<wgt id='2205'>0.80237E+02</wgt>
<wgt id='2206'>0.82347E+02</wgt>
<wgt id='2207'>0.85214E+02</wgt>
<wgt id='2208'>0.87267E+02</wgt>
<wgt id='2300'>0.84903E+02</wgt>
<wgt id='2301'>0.85015E+02</wgt>
<wgt id='2302'>0.84806E+02</wgt>
<wgt id='2303'>0.84907E+02</wgt>
<wgt id='2304'>0.85149E+02</wgt>
<wgt id='2305'>0.84980E+02</wgt>
<wgt id='2306'>0.84858E+02</wgt>
<wgt id='2307'>0.85020E+02</wgt>
<wgt id='2308'>0.84851E+02</wgt>
<wgt id='2309'>0.85076E+02</wgt>
<wgt id='2310'>0.84760E+02</wgt>
<wgt id='2311'>0.84782E+02</wgt>
<wgt id='2312'>0.85002E+02</wgt>
<wgt id='2313'>0.84924E+02</wgt>
<wgt id='2314'>0.84947E+02</wgt>
<wgt id='2315'>0.84823E+02</wgt>
<wgt id='2316'>0.84937E+02</wgt>
<wgt id='2317'>0.84922E+02</wgt>
<wgt id='2318'>0.84985E+02</wgt>
<wgt id='2319'>0.84932E+02</wgt>
<wgt id='2320'>0.84960E+02</wgt>
<wgt id='2321'>0.84951E+02</wgt>
<wgt id='2322'>0.84896E+02</wgt>
<wgt id='2323'>0.84891E+02</wgt>
<wgt id='2324'>0.84901E+02</wgt>
<wgt id='2325'>0.85002E+02</wgt>
<wgt id='2326'>0.84806E+02</wgt>
<wgt id='2327'>0.84957E+02</wgt>
<wgt id='2328'>0.84824E+02</wgt>
<wgt id='2329'>0.84680E+02</wgt>
<wgt id='2330'>0.85411E+02</wgt>
<wgt id='2331'>0.85155E+02</wgt>
<wgt id='2332'>0.84847E+02</wgt>
<wgt id='2333'>0.84994E+02</wgt>
<wgt id='2334'>0.84876E+02</wgt>
<wgt id='2335'>0.85219E+02</wgt>
<wgt id='2336'>0.85024E+02</wgt>
<wgt id='2337'>0.84880E+02</wgt>
<wgt id='2338'>0.84924E+02</wgt>
<wgt id='2339'>0.85058E+02</wgt>
<wgt id='2340'>0.84790E+02</wgt>
<wgt id='2341'>0.84910E+02</wgt>
<wgt id='2342'>0.84781E+02</wgt>
<wgt id='2343'>0.84734E+02</wgt>
<wgt id='2344'>0.85009E+02</wgt>
<wgt id='2345'>0.84996E+02</wgt>
<wgt id='2346'>0.85031E+02</wgt>
<wgt id='2347'>0.84903E+02</wgt>
<wgt id='2348'>0.84918E+02</wgt>
<wgt id='2349'>0.84859E+02</wgt>
<wgt id='2350'>0.84796E+02</wgt>
<wgt id='2351'>0.85059E+02</wgt>
<wgt id='2352'>0.84848E+02</wgt>
<wgt id='2353'>0.84882E+02</wgt>
<wgt id='2354'>0.84925E+02</wgt>
<wgt id='2355'>0.84849E+02</wgt>
<wgt id='2356'>0.84922E+02</wgt>
<wgt id='2357'>0.84909E+02</wgt>
<wgt id='2358'>0.84838E+02</wgt>
<wgt id='2359'>0.84915E+02</wgt>
<wgt id='2360'>0.84943E+02</wgt>
<wgt id='2361'>0.84947E+02</wgt>
<wgt id='2362'>0.84933E+02</wgt>
<wgt id='2363'>0.84932E+02</wgt>
<wgt id='2364'>0.84884E+02</wgt>
<wgt id='2365'>0.84890E+02</wgt>
<wgt id='2366'>0.84929E+02</wgt>
<wgt id='2367'>0.84841E+02</wgt>
<wgt id='2368'>0.84926E+02</wgt>
<wgt id='2369'>0.84869E+02</wgt>
<wgt id='2370'>0.84894E+02</wgt>
<wgt id='2371'>0.84891E+02</wgt>
<wgt id='2372'>0.84917E+02</wgt>
<wgt id='2373'>0.84870E+02</wgt>
<wgt id='2374'>0.84952E+02</wgt>
<wgt id='2375'>0.84904E+02</wgt>
<wgt id='2376'>0.84911E+02</wgt>
<wgt id='2377'>0.84913E+02</wgt>
<wgt id='2378'>0.84932E+02</wgt>
<wgt id='2379'>0.84887E+02</wgt>
<wgt id='2380'>0.84879E+02</wgt>
<wgt id='2381'>0.84896E+02</wgt>
<wgt id='2382'>0.84885E+02</wgt>
<wgt id='2383'>0.84909E+02</wgt>
<wgt id='2384'>0.84890E+02</wgt>
<wgt id='2385'>0.84918E+02</wgt>
<wgt id='2386'>0.84891E+02</wgt>
<wgt id='2387'>0.84886E+02</wgt>
<wgt id='2388'>0.84891E+02</wgt>
<wgt id='2389'>0.84908E+02</wgt>
<wgt id='2390'>0.84902E+02</wgt>
<wgt id='2391'>0.84898E+02</wgt>
<wgt id='2392'>0.84902E+02</wgt>
<wgt id='2393'>0.84912E+02</wgt>
<wgt id='2394'>0.84919E+02</wgt>
<wgt id='2395'>0.84906E+02</wgt>
<wgt id='2396'>0.84891E+02</wgt>
<wgt id='2397'>0.84885E+02</wgt>
<wgt id='2398'>0.84897E+02</wgt>
<wgt id='2399'>0.84917E+02</wgt>
<wgt id='2400'>0.84910E+02</wgt>
<wgt id='2401'>0.82716E+02</wgt>
<wgt id='2402'>0.87037E+02</wgt>
<wgt id='2500'>0.81883E+02</wgt>
<wgt id='2501'>0.86917E+02</wgt>
<wgt id='2600'>0.78453E+02</wgt>
<wgt id='2601'>0.78393E+02</wgt>
<wgt id='2602'>0.78422E+02</wgt>
<wgt id='2603'>0.78424E+02</wgt>
<wgt id='2604'>0.78496E+02</wgt>
<wgt id='2605'>0.78340E+02</wgt>
<wgt id='2606'>0.78354E+02</wgt>
<wgt id='2607'>0.78541E+02</wgt>
<wgt id='2608'>0.78443E+02</wgt>
<wgt id='2609'>0.78373E+02</wgt>
<wgt id='2610'>0.78398E+02</wgt>
<wgt id='2611'>0.78391E+02</wgt>
<wgt id='2612'>0.78673E+02</wgt>
<wgt id='2613'>0.78429E+02</wgt>
<wgt id='2614'>0.78412E+02</wgt>
<wgt id='2615'>0.78277E+02</wgt>
<wgt id='2616'>0.78448E+02</wgt>
<wgt id='2617'>0.78275E+02</wgt>
<wgt id='2618'>0.78288E+02</wgt>
<wgt id='2619'>0.78518E+02</wgt>
<wgt id='2620'>0.78427E+02</wgt>
<wgt id='2621'>0.78477E+02</wgt>
<wgt id='2622'>0.78670E+02</wgt>
<wgt id='2623'>0.78447E+02</wgt>
<wgt id='2624'>0.78449E+02</wgt>
<wgt id='2625'>0.78406E+02</wgt>
<wgt id='2626'>0.78441E+02</wgt>
<wgt id='2627'>0.78448E+02</wgt>
<wgt id='2628'>0.78464E+02</wgt>
<wgt id='2629'>0.78467E+02</wgt>
<wgt id='2630'>0.78491E+02</wgt>
<wgt id='2631'>0.78374E+02</wgt>
<wgt id='2632'>0.78459E+02</wgt>
<wgt id='2633'>0.78420E+02</wgt>
<wgt id='2634'>0.78401E+02</wgt>
<wgt id='2635'>0.78440E+02</wgt>
<wgt id='2636'>0.78442E+02</wgt>
<wgt id='2637'>0.78462E+02</wgt>
<wgt id='2638'>0.78478E+02</wgt>
<wgt id='2639'>0.78456E+02</wgt>
<wgt id='2640'>0.78448E+02</wgt>
<wgt id='2641'>0.78472E+02</wgt>
<wgt id='2642'>0.78466E+02</wgt>
<wgt id='2643'>0.78450E+02</wgt>
<wgt id='2644'>0.78446E+02</wgt>
<wgt id='2645'>0.78453E+02</wgt>
<wgt id='2646'>0.78474E+02</wgt>
<wgt id='2647'>0.78450E+02</wgt>
<wgt id='2648'>0.78448E+02</wgt>
<wgt id='2649'>0.78453E+02</wgt>
<wgt id='2650'>0.78452E+02</wgt>
<wgt id='2651'>0.77104E+02</wgt>
<wgt id='2652'>0.79662E+02</wgt>
<wgt id='2700'>0.75852E+02</wgt>
<wgt id='2701'>0.77104E+02</wgt>
<wgt id='2702'>0.77831E+02</wgt>
<wgt id='2703'>0.78988E+02</wgt>
<wgt id='2704'>0.79662E+02</wgt>
<wgt id='2705'>0.80844E+02</wgt>
<wgt id='2800'>0.79679E+02</wgt>
<wgt id='4000'>0.80504E+02</wgt>
<wgt id='4001'>0.80852E+02</wgt>
<wgt id='4002'>0.80432E+02</wgt>
<wgt id='4003'>0.80688E+02</wgt>
<wgt id='4004'>0.80304E+02</wgt>
<wgt id='4005'>0.80269E+02</wgt>
<wgt id='4006'>0.80776E+02</wgt>
<wgt id='4007'>0.81406E+02</wgt>
<wgt id='4008'>0.79632E+02</wgt>
<wgt id='4009'>0.80812E+02</wgt>
<wgt id='4010'>0.80171E+02</wgt>
<wgt id='4011'>0.80843E+02</wgt>
<wgt id='4012'>0.80149E+02</wgt>
<wgt id='4013'>0.81025E+02</wgt>
<wgt id='4014'>0.80082E+02</wgt>
<wgt id='4015'>0.80142E+02</wgt>
<wgt id='4016'>0.81039E+02</wgt>
<wgt id='4017'>0.80438E+02</wgt>
<wgt id='4018'>0.80611E+02</wgt>
<wgt id='4019'>0.80979E+02</wgt>
<wgt id='4020'>0.79814E+02</wgt>
<wgt id='4021'>0.80625E+02</wgt>
<wgt id='4022'>0.80275E+02</wgt>
<wgt id='4023'>0.80535E+02</wgt>
<wgt id='4024'>0.80670E+02</wgt>
<wgt id='4025'>0.80696E+02</wgt>
<wgt id='4026'>0.80083E+02</wgt>
<wgt id='4027'>0.80600E+02</wgt>
<wgt id='4028'>0.80475E+02</wgt>
<wgt id='4029'>0.80232E+02</wgt>
<wgt id='4030'>0.80162E+02</wgt>
<wgt id='4031'>0.80254E+02</wgt>
<wgt id='4032'>0.80942E+02</wgt>
<wgt id='4033'>0.80718E+02</wgt>
<wgt id='4034'>0.80067E+02</wgt>
<wgt id='4035'>0.81572E+02</wgt>
<wgt id='4036'>0.79692E+02</wgt>
<wgt id='4037'>0.82133E+02</wgt>
<wgt id='4038'>0.79255E+02</wgt>
<wgt id='4039'>0.82022E+02</wgt>
<wgt id='4040'>0.78986E+02</wgt>
<wgt id='4041'>0.80560E+02</wgt>
<wgt id='4042'>0.80339E+02</wgt>
<wgt id='4043'>0.79710E+02</wgt>
<wgt id='4044'>0.80462E+02</wgt>
<wgt id='4045'>0.81815E+02</wgt>
<wgt id='4046'>0.79891E+02</wgt>
<wgt id='4047'>0.79778E+02</wgt>
<wgt id='4048'>0.80883E+02</wgt>
<wgt id='4049'>0.80479E+02</wgt>
<wgt id='4050'>0.80526E+02</wgt>
<wgt id='4051'>0.81463E+02</wgt>
<wgt id='4052'>0.79683E+02</wgt>
<wgt id='4053'>0.81011E+02</wgt>
<wgt id='4054'>0.79535E+02</wgt>
<wgt id='4055'>0.80950E+02</wgt>
<wgt id='4056'>0.80052E+02</wgt>
<wgt id='4057'>0.79701E+02</wgt>
<wgt id='4058'>0.81032E+02</wgt>
<wgt id='4100'>0.81056E+02</wgt>
<wgt id='4101'>0.80787E+02</wgt>
<wgt id='4102'>0.80204E+02</wgt>
<wgt id='4103'>0.79887E+02</wgt>
<wgt id='4200'>0.77503E+02</wgt>
<wgt id='4201'>0.77580E+02</wgt>
<wgt id='4202'>0.77668E+02</wgt>
<wgt id='4203'>0.76862E+02</wgt>
<wgt id='4204'>0.77969E+02</wgt>
<wgt id='4205'>0.77429E+02</wgt>
<wgt id='4206'>0.77752E+02</wgt>
<wgt id='4207'>0.77545E+02</wgt>
<wgt id='4208'>0.77536E+02</wgt>
<wgt id='4209'>0.77612E+02</wgt>
<wgt id='4210'>0.77539E+02</wgt>
<wgt id='4211'>0.78495E+02</wgt>
<wgt id='4212'>0.76724E+02</wgt>
<wgt id='4213'>0.77705E+02</wgt>
<wgt id='4214'>0.77183E+02</wgt>
<wgt id='4215'>0.77553E+02</wgt>
<wgt id='4216'>0.77280E+02</wgt>
<wgt id='4217'>0.77168E+02</wgt>
<wgt id='4218'>0.77730E+02</wgt>
<wgt id='4219'>0.76495E+02</wgt>
<wgt id='4220'>0.78460E+02</wgt>
<wgt id='4221'>0.76889E+02</wgt>
<wgt id='4222'>0.78256E+02</wgt>
<wgt id='4223'>0.77702E+02</wgt>
<wgt id='4224'>0.76860E+02</wgt>
<wgt id='4225'>0.76168E+02</wgt>
<wgt id='4226'>0.78852E+02</wgt>
<wgt id='4227'>0.78159E+02</wgt>
<wgt id='4228'>0.76952E+02</wgt>
<wgt id='4229'>0.76574E+02</wgt>
<wgt id='4230'>0.78183E+02</wgt>
<wgt id='4231'>0.77591E+02</wgt>
<wgt id='4232'>0.77308E+02</wgt>
<wgt id='4233'>0.77748E+02</wgt>
<wgt id='4234'>0.76954E+02</wgt>
<wgt id='4235'>0.78028E+02</wgt>
<wgt id='4236'>0.77047E+02</wgt>
<wgt id='4237'>0.77880E+02</wgt>
<wgt id='4238'>0.76789E+02</wgt>
<wgt id='4239'>0.77828E+02</wgt>
<wgt id='4240'>0.76433E+02</wgt>
<wgt id='4241'>0.77249E+02</wgt>
<wgt id='4242'>0.77766E+02</wgt>
<wgt id='4243'>0.77504E+02</wgt>
<wgt id='4244'>0.77741E+02</wgt>
<wgt id='4245'>0.76857E+02</wgt>
<wgt id='4246'>0.78023E+02</wgt>
<wgt id='4247'>0.77142E+02</wgt>
<wgt id='4248'>0.77653E+02</wgt>
<wgt id='4249'>0.78735E+02</wgt>
<wgt id='4250'>0.76073E+02</wgt>
<wgt id='4251'>0.77119E+02</wgt>
<wgt id='4252'>0.77665E+02</wgt>
<wgt id='4253'>0.77290E+02</wgt>
<wgt id='4254'>0.77540E+02</wgt>
<wgt id='4255'>0.78085E+02</wgt>
<wgt id='4256'>0.77118E+02</wgt>
<wgt id='4257'>0.76050E+02</wgt>
<wgt id='4258'>0.77921E+02</wgt>
<wgt id='4300'>0.79672E+02</wgt>
<wgt id='4301'>0.79049E+02</wgt>
<wgt id='5000'>0.80301E+02</wgt>
<wgt id='5001'>0.80344E+02</wgt>
<wgt id='5002'>0.80246E+02</wgt>
<wgt id='5003'>0.80320E+02</wgt>
<wgt id='5004'>0.80283E+02</wgt>
<wgt id='5005'>0.80310E+02</wgt>
<wgt id='5006'>0.80287E+02</wgt>
<wgt id='5007'>0.80374E+02</wgt>
<wgt id='5008'>0.80242E+02</wgt>
<wgt id='5009'>0.80417E+02</wgt>
<wgt id='5010'>0.80181E+02</wgt>
<wgt id='5011'>0.80510E+02</wgt>
<wgt id='5012'>0.80100E+02</wgt>
<wgt id='5013'>0.80428E+02</wgt>
<wgt id='5014'>0.80211E+02</wgt>
<wgt id='5015'>0.79884E+02</wgt>
<wgt id='5016'>0.79884E+02</wgt>
<wgt id='5017'>0.80736E+02</wgt>
<wgt id='5018'>0.80008E+02</wgt>
<wgt id='5019'>0.80605E+02</wgt>
<wgt id='5020'>0.79885E+02</wgt>
<wgt id='5021'>0.80395E+02</wgt>
<wgt id='5022'>0.80155E+02</wgt>
<wgt id='5023'>0.80222E+02</wgt>
<wgt id='5024'>0.80490E+02</wgt>
<wgt id='5025'>0.80026E+02</wgt>
<wgt id='5026'>0.80610E+02</wgt>
<wgt id='5027'>0.80347E+02</wgt>
<wgt id='5028'>0.80177E+02</wgt>
<wgt id='5029'>0.81115E+02</wgt>
<wgt id='5030'>0.79841E+02</wgt>
<wgt id='5031'>0.79873E+02</wgt>
<wgt id='5032'>0.81605E+02</wgt>
<wgt id='5033'>0.80280E+02</wgt>
<wgt id='5034'>0.80323E+02</wgt>
<wgt id='5035'>0.80309E+02</wgt>
<wgt id='5036'>0.80292E+02</wgt>
<wgt id='5037'>0.80131E+02</wgt>
<wgt id='5038'>0.80397E+02</wgt>
<wgt id='5039'>0.80510E+02</wgt>
<wgt id='5040'>0.79784E+02</wgt>
<wgt id='5041'>0.80398E+02</wgt>
<wgt id='5042'>0.80204E+02</wgt>
<wgt id='5043'>0.80452E+02</wgt>
<wgt id='5044'>0.80208E+02</wgt>
<wgt id='5045'>0.80209E+02</wgt>
<wgt id='5046'>0.80490E+02</wgt>
<wgt id='5047'>0.80356E+02</wgt>
<wgt id='5048'>0.80061E+02</wgt>
<wgt id='5049'>0.80255E+02</wgt>
<wgt id='5050'>0.80414E+02</wgt>
<wgt id='5051'>0.80462E+02</wgt>
<wgt id='5052'>0.80173E+02</wgt>
<wgt id='5053'>0.80260E+02</wgt>
<wgt id='5054'>0.80475E+02</wgt>
<wgt id='5055'>0.80353E+02</wgt>
<wgt id='5056'>0.80332E+02</wgt>
<wgt id='5057'>0.80013E+02</wgt>
<wgt id='5058'>0.80503E+02</wgt>
<wgt id='5059'>0.80250E+02</wgt>
<wgt id='5060'>0.80340E+02</wgt>
<wgt id='5061'>0.80569E+02</wgt>
<wgt id='5062'>0.80390E+02</wgt>
<wgt id='5063'>0.80614E+02</wgt>
<wgt id='5064'>0.80273E+02</wgt>
<wgt id='5100'>0.80301E+02</wgt>
<wgt id='5101'>0.80310E+02</wgt>
<wgt id='6000'>0.80098E+02</wgt>
<wgt id='6001'>0.80048E+02</wgt>
<wgt id='6002'>0.79977E+02</wgt>
<wgt id='6003'>0.79970E+02</wgt>
<wgt id='6004'>0.80172E+02</wgt>
<wgt id='6005'>0.79822E+02</wgt>
<wgt id='6006'>0.80280E+02</wgt>
<wgt id='6007'>0.79856E+02</wgt>
<wgt id='6008'>0.79805E+02</wgt>
<wgt id='6009'>0.80188E+02</wgt>
<wgt id='6010'>0.79076E+02</wgt>
<wgt id='6011'>0.80066E+02</wgt>
<wgt id='6012'>0.80324E+02</wgt>
<wgt id='6013'>0.79809E+02</wgt>
<wgt id='6014'>0.79914E+02</wgt>
<wgt id='6015'>0.79503E+02</wgt>
<wgt id='6016'>0.80279E+02</wgt>
<wgt id='6017'>0.79950E+02</wgt>
<wgt id='6018'>0.79785E+02</wgt>
<wgt id='6019'>0.80132E+02</wgt>
<wgt id='6020'>0.80243E+02</wgt>
<wgt id='6021'>0.80073E+02</wgt>
<wgt id='6022'>0.80189E+02</wgt>
<wgt id='6023'>0.80095E+02</wgt>
<wgt id='6024'>0.80175E+02</wgt>
<wgt id='6025'>0.80403E+02</wgt>
<wgt id='6026'>0.80057E+02</wgt>
<wgt id='6027'>0.80106E+02</wgt>
<wgt id='6028'>0.79886E+02</wgt>
<wgt id='6029'>0.79953E+02</wgt>
<wgt id='6030'>0.80130E+02</wgt>
<wgt id='6031'>0.79904E+02</wgt>
<wgt id='6032'>0.80109E+02</wgt>
<wgt id='6033'>0.79993E+02</wgt>
<wgt id='6034'>0.80363E+02</wgt>
<wgt id='6035'>0.80150E+02</wgt>
<wgt id='6036'>0.80639E+02</wgt>
<wgt id='6037'>0.80104E+02</wgt>
<wgt id='6038'>0.80120E+02</wgt>
<wgt id='6039'>0.80263E+02</wgt>
<wgt id='6040'>0.80080E+02</wgt>
<wgt id='6041'>0.78880E+02</wgt>
<wgt id='6042'>0.80851E+02</wgt>
<wgt id='7000'>0.79666E+02</wgt>
<wgt id='7001'>0.79121E+02</wgt>
<wgt id='7002'>0.79298E+02</wgt>
<wgt id='7003'>0.79187E+02</wgt>
<wgt id='7004'>0.79232E+02</wgt>
<wgt id='7005'>0.79307E+02</wgt>
<wgt id='7006'>0.79112E+02</wgt>
<wgt id='7007'>0.79720E+02</wgt>
<wgt id='7008'>0.78713E+02</wgt>
<wgt id='7009'>0.78852E+02</wgt>
<wgt id='7010'>0.79579E+02</wgt>
<wgt id='7011'>0.79490E+02</wgt>
<wgt id='7012'>0.78934E+02</wgt>
<wgt id='7013'>0.79097E+02</wgt>
<wgt id='7014'>0.79315E+02</wgt>
<wgt id='7015'>0.79175E+02</wgt>
<wgt id='7016'>0.79023E+02</wgt>
<wgt id='7017'>0.79213E+02</wgt>
<wgt id='7018'>0.79211E+02</wgt>
<wgt id='7019'>0.79158E+02</wgt>
<wgt id='7020'>0.79272E+02</wgt>
<wgt id='7021'>0.79532E+02</wgt>
<wgt id='7022'>0.78881E+02</wgt>
<wgt id='7023'>0.78711E+02</wgt>
<wgt id='7024'>0.79719E+02</wgt>
<wgt id='7025'>0.78108E+02</wgt>
<wgt id='7026'>0.80243E+02</wgt>
<wgt id='7027'>0.78755E+02</wgt>
<wgt id='7028'>0.79721E+02</wgt>
<wgt id='8000'>0.80065E+02</wgt>
<wgt id='8001'>0.80057E+02</wgt>
<wgt id='8002'>0.80090E+02</wgt>
<wgt id='8003'>0.80067E+02</wgt>
<wgt id='8004'>0.80063E+02</wgt>
<wgt id='8005'>0.79911E+02</wgt>
<wgt id='8006'>0.80155E+02</wgt>
<wgt id='8007'>0.80234E+02</wgt>
<wgt id='8008'>0.80250E+02</wgt>
<wgt id='8009'>0.80413E+02</wgt>
<wgt id='8010'>0.79972E+02</wgt>
<wgt id='8011'>0.80085E+02</wgt>
<wgt id='8012'>0.79756E+02</wgt>
<wgt id='8013'>0.79900E+02</wgt>
<wgt id='8014'>0.80270E+02</wgt>
<wgt id='8015'>0.80018E+02</wgt>
<wgt id='8016'>0.80151E+02</wgt>
<wgt id='8017'>0.80132E+02</wgt>
<wgt id='8018'>0.80287E+02</wgt>
<wgt id='8019'>0.80094E+02</wgt>
<wgt id='8020'>0.80072E+02</wgt>
<wgt id='8021'>0.79983E+02</wgt>
<wgt id='8022'>0.80068E+02</wgt>
<wgt id='8023'>0.79943E+02</wgt>
<wgt id='8024'>0.79764E+02</wgt>
<wgt id='8025'>0.79969E+02</wgt>
<wgt id='8026'>0.80160E+02</wgt>
<wgt id='8027'>0.80131E+02</wgt>
<wgt id='8028'>0.80122E+02</wgt>
<wgt id='8029'>0.80214E+02</wgt>
<wgt id='3000'>0.81104E+02</wgt>
<wgt id='3001'>0.80912E+02</wgt>
<wgt id='3002'>0.79905E+02</wgt>
<wgt id='3003'>0.80200E+02</wgt>
<wgt id='3004'>0.82152E+02</wgt>
<wgt id='3005'>0.81571E+02</wgt>
<wgt id='3006'>0.83195E+02</wgt>
<wgt id='3007'>0.80353E+02</wgt>
<wgt id='3008'>0.80326E+02</wgt>
<wgt id='3009'>0.81241E+02</wgt>
<wgt id='3010'>0.83105E+02</wgt>
<wgt id='3011'>0.81267E+02</wgt>
<wgt id='3012'>0.81562E+02</wgt>
<wgt id='3013'>0.80094E+02</wgt>
<wgt id='3014'>0.80812E+02</wgt>
<wgt id='3015'>0.80635E+02</wgt>
<wgt id='3016'>0.81767E+02</wgt>
<wgt id='3017'>0.82765E+02</wgt>
<wgt id='3018'>0.80823E+02</wgt>
<wgt id='3019'>0.79626E+02</wgt>
<wgt id='3020'>0.80494E+02</wgt>
<wgt id='3021'>0.79284E+02</wgt>
<wgt id='3022'>0.79185E+02</wgt>
<wgt id='3023'>0.79698E+02</wgt>
<wgt id='3024'>0.80755E+02</wgt>
<wgt id='3025'>0.80034E+02</wgt>
<wgt id='3026'>0.80280E+02</wgt>
<wgt id='3027'>0.80065E+02</wgt>
<wgt id='3028'>0.80129E+02</wgt>
<wgt id='3029'>0.82284E+02</wgt>
<wgt id='3030'>0.82163E+02</wgt>
<wgt id='3031'>0.81189E+02</wgt>
<wgt id='3032'>0.81776E+02</wgt>
<wgt id='3033'>0.80457E+02</wgt>
<wgt id='3034'>0.82218E+02</wgt>
<wgt id='3035'>0.80890E+02</wgt>
<wgt id='3036'>0.80583E+02</wgt>
<wgt id='3037'>0.79588E+02</wgt>
<wgt id='3038'>0.80928E+02</wgt>
<wgt id='3039'>0.80804E+02</wgt>
<wgt id='3040'>0.81450E+02</wgt>
<wgt id='3041'>0.81749E+02</wgt>
<wgt id='3042'>0.81629E+02</wgt>
<wgt id='3043'>0.81821E+02</wgt>
<wgt id='3044'>0.81786E+02</wgt>
<wgt id='3045'>0.81595E+02</wgt>
<wgt id='3046'>0.81750E+02</wgt>
<wgt id='3047'>0.79601E+02</wgt>
<wgt id='3048'>0.80708E+02</wgt>
<wgt id='3049'>0.80344E+02</wgt>
<wgt id='3050'>0.81211E+02</wgt>
<wgt id='3051'>0.80900E+02</wgt>
<wgt id='3052'>0.79915E+02</wgt>
<wgt id='3053'>0.81140E+02</wgt>
<wgt id='3054'>0.80271E+02</wgt>
<wgt id='3055'>0.80600E+02</wgt>
<wgt id='3056'>0.81092E+02</wgt>
<wgt id='3057'>0.80130E+02</wgt>
<wgt id='3058'>0.80667E+02</wgt>
<wgt id='3059'>0.82135E+02</wgt>
<wgt id='3060'>0.80828E+02</wgt>
<wgt id='3061'>0.80689E+02</wgt>
<wgt id='3062'>0.80887E+02</wgt>
<wgt id='3063'>0.79952E+02</wgt>
<wgt id='3064'>0.81661E+02</wgt>
<wgt id='3065'>0.80219E+02</wgt>
<wgt id='3066'>0.82152E+02</wgt>
<wgt id='3067'>0.79906E+02</wgt>
<wgt id='3068'>0.81313E+02</wgt>
<wgt id='3069'>0.81177E+02</wgt>
<wgt id='3070'>0.80717E+02</wgt>
<wgt id='3071'>0.81579E+02</wgt>
<wgt id='3072'>0.79973E+02</wgt>
<wgt id='3073'>0.81939E+02</wgt>
<wgt id='3074'>0.81244E+02</wgt>
<wgt id='3075'>0.82328E+02</wgt>
<wgt id='3076'>0.82720E+02</wgt>
<wgt id='3077'>0.81201E+02</wgt>
<wgt id='3078'>0.80236E+02</wgt>
<wgt id='3079'>0.80990E+02</wgt>
<wgt id='3080'>0.82333E+02</wgt>
<wgt id='3081'>0.80655E+02</wgt>
<wgt id='3082'>0.81767E+02</wgt>
<wgt id='3083'>0.81716E+02</wgt>
<wgt id='3084'>0.81010E+02</wgt>
<wgt id='3085'>0.80033E+02</wgt>
<wgt id='3086'>0.81122E+02</wgt>
<wgt id='3087'>0.81221E+02</wgt>
<wgt id='3088'>0.82784E+02</wgt>
<wgt id='3089'>0.84436E+02</wgt>
<wgt id='3090'>0.82081E+02</wgt>
<wgt id='3091'>0.81034E+02</wgt>
<wgt id='3092'>0.82319E+02</wgt>
<wgt id='3093'>0.81725E+02</wgt>
<wgt id='3094'>0.81616E+02</wgt>
<wgt id='3095'>0.81351E+02</wgt>
<wgt id='3096'>0.80347E+02</wgt>
<wgt id='3097'>0.82033E+02</wgt>
<wgt id='3098'>0.82173E+02</wgt>
<wgt id='3099'>0.80265E+02</wgt>
<wgt id='3100'>0.80702E+02</wgt>
<wgt id='3200'>0.78494E+02</wgt>
<wgt id='3201'>0.78992E+02</wgt>
<wgt id='3202'>0.77142E+02</wgt>
<wgt id='3203'>0.78767E+02</wgt>
<wgt id='3204'>0.77732E+02</wgt>
<wgt id='3205'>0.78995E+02</wgt>
<wgt id='3206'>0.79321E+02</wgt>
<wgt id='3207'>0.79449E+02</wgt>
<wgt id='3208'>0.79029E+02</wgt>
<wgt id='3209'>0.78287E+02</wgt>
<wgt id='3210'>0.78499E+02</wgt>
<wgt id='3211'>0.79116E+02</wgt>
<wgt id='3212'>0.77956E+02</wgt>
<wgt id='3213'>0.78446E+02</wgt>
<wgt id='3214'>0.78085E+02</wgt>
<wgt id='3215'>0.78585E+02</wgt>
<wgt id='3216'>0.79356E+02</wgt>
<wgt id='3217'>0.78822E+02</wgt>
<wgt id='3218'>0.78867E+02</wgt>
<wgt id='3219'>0.78376E+02</wgt>
<wgt id='3220'>0.77927E+02</wgt>
<wgt id='3221'>0.78985E+02</wgt>
<wgt id='3222'>0.79648E+02</wgt>
<wgt id='3223'>0.78791E+02</wgt>
<wgt id='3224'>0.78312E+02</wgt>
<wgt id='3225'>0.79298E+02</wgt>
<wgt id='3226'>0.78389E+02</wgt>
<wgt id='3227'>0.77803E+02</wgt>
<wgt id='3228'>0.77662E+02</wgt>
<wgt id='3229'>0.79097E+02</wgt>
<wgt id='3230'>0.78961E+02</wgt>
<wgt id='3231'>0.78669E+02</wgt>
<wgt id='3232'>0.78840E+02</wgt>
<wgt id='3233'>0.79078E+02</wgt>
<wgt id='3234'>0.78042E+02</wgt>
<wgt id='3235'>0.78245E+02</wgt>
<wgt id='3236'>0.77847E+02</wgt>
<wgt id='3237'>0.78425E+02</wgt>
<wgt id='3238'>0.77902E+02</wgt>
<wgt id='3239'>0.78089E+02</wgt>
<wgt id='3240'>0.77852E+02</wgt>
<wgt id='3241'>0.79354E+02</wgt>
<wgt id='3242'>0.78027E+02</wgt>
<wgt id='3243'>0.77826E+02</wgt>
<wgt id='3244'>0.78262E+02</wgt>
<wgt id='3245'>0.78858E+02</wgt>
<wgt id='3246'>0.77342E+02</wgt>
<wgt id='3247'>0.78481E+02</wgt>
<wgt id='3248'>0.78117E+02</wgt>
<wgt id='3249'>0.77701E+02</wgt>
<wgt id='3250'>0.78789E+02</wgt>
<wgt id='3251'>0.78279E+02</wgt>
<wgt id='3252'>0.78865E+02</wgt>
<wgt id='3253'>0.78258E+02</wgt>
<wgt id='3254'>0.78216E+02</wgt>
<wgt id='3255'>0.78205E+02</wgt>
<wgt id='3256'>0.78458E+02</wgt>
<wgt id='3257'>0.78348E+02</wgt>
<wgt id='3258'>0.78518E+02</wgt>
<wgt id='3259'>0.78288E+02</wgt>
<wgt id='3260'>0.78594E+02</wgt>
<wgt id='3261'>0.78758E+02</wgt>
<wgt id='3262'>0.78525E+02</wgt>
<wgt id='3263'>0.79367E+02</wgt>
<wgt id='3264'>0.78490E+02</wgt>
<wgt id='3265'>0.78672E+02</wgt>
<wgt id='3266'>0.78425E+02</wgt>
<wgt id='3267'>0.78276E+02</wgt>
<wgt id='3268'>0.78678E+02</wgt>
<wgt id='3269'>0.78637E+02</wgt>
<wgt id='3270'>0.79037E+02</wgt>
<wgt id='3271'>0.78745E+02</wgt>
<wgt id='3272'>0.78911E+02</wgt>
<wgt id='3273'>0.78372E+02</wgt>
<wgt id='3274'>0.78267E+02</wgt>
<wgt id='3275'>0.78868E+02</wgt>
<wgt id='3276'>0.77913E+02</wgt>
<wgt id='3277'>0.78056E+02</wgt>
<wgt id='3278'>0.78586E+02</wgt>
<wgt id='3279'>0.79077E+02</wgt>
<wgt id='3280'>0.78331E+02</wgt>
<wgt id='3281'>0.78839E+02</wgt>
<wgt id='3282'>0.78766E+02</wgt>
<wgt id='3283'>0.78708E+02</wgt>
<wgt id='3284'>0.78571E+02</wgt>
<wgt id='3285'>0.78017E+02</wgt>
<wgt id='3286'>0.77851E+02</wgt>
<wgt id='3287'>0.78605E+02</wgt>
<wgt id='3288'>0.78625E+02</wgt>
<wgt id='3289'>0.79593E+02</wgt>
<wgt id='3290'>0.78922E+02</wgt>
<wgt id='3291'>0.77109E+02</wgt>
<wgt id='3292'>0.77880E+02</wgt>
<wgt id='3293'>0.78398E+02</wgt>
<wgt id='3294'>0.77460E+02</wgt>
<wgt id='3295'>0.78073E+02</wgt>
<wgt id='3296'>0.79607E+02</wgt>
<wgt id='3297'>0.78264E+02</wgt>
<wgt id='3298'>0.78098E+02</wgt>
<wgt id='3299'>0.78350E+02</wgt>
<wgt id='3300'>0.79146E+02</wgt>
<wgt id='3301'>0.77104E+02</wgt>
<wgt id='3302'>0.79662E+02</wgt>
<wgt id='3400'>0.78389E+02</wgt>
<wgt id='3401'>0.78457E+02</wgt>
<wgt id='3402'>0.77477E+02</wgt>
<wgt id='3403'>0.79147E+02</wgt>
<wgt id='3404'>0.79643E+02</wgt>
<wgt id='3405'>0.79048E+02</wgt>
<wgt id='3406'>0.78922E+02</wgt>
<wgt id='3407'>0.78040E+02</wgt>
<wgt id='3408'>0.79620E+02</wgt>
<wgt id='3409'>0.79463E+02</wgt>
<wgt id='3410'>0.78822E+02</wgt>
<wgt id='3411'>0.79231E+02</wgt>
<wgt id='3412'>0.79114E+02</wgt>
<wgt id='3413'>0.78279E+02</wgt>
<wgt id='3414'>0.77941E+02</wgt>
<wgt id='3415'>0.78256E+02</wgt>
<wgt id='3416'>0.77938E+02</wgt>
<wgt id='3417'>0.78454E+02</wgt>
<wgt id='3418'>0.77719E+02</wgt>
<wgt id='3419'>0.77749E+02</wgt>
<wgt id='3420'>0.78386E+02</wgt>
<wgt id='3421'>0.78451E+02</wgt>
<wgt id='3422'>0.78600E+02</wgt>
<wgt id='3423'>0.79057E+02</wgt>
<wgt id='3424'>0.78888E+02</wgt>
<wgt id='3425'>0.78249E+02</wgt>
<wgt id='3426'>0.78311E+02</wgt>
<wgt id='3427'>0.78159E+02</wgt>
<wgt id='3428'>0.79062E+02</wgt>
<wgt id='3429'>0.77716E+02</wgt>
<wgt id='3430'>0.78527E+02</wgt>
<wgt id='3431'>0.78420E+02</wgt>
<wgt id='3432'>0.78607E+02</wgt>
<wgt id='3433'>0.77430E+02</wgt>
<wgt id='3434'>0.78791E+02</wgt>
<wgt id='3435'>0.78929E+02</wgt>
<wgt id='3436'>0.78263E+02</wgt>
<wgt id='3437'>0.78571E+02</wgt>
<wgt id='3438'>0.77628E+02</wgt>
<wgt id='3439'>0.78223E+02</wgt>
<wgt id='3440'>0.78573E+02</wgt>
<wgt id='3441'>0.78359E+02</wgt>
<wgt id='3442'>0.77145E+02</wgt>
<wgt id='3443'>0.78455E+02</wgt>
<wgt id='3444'>0.78042E+02</wgt>
<wgt id='3445'>0.78025E+02</wgt>
<wgt id='3446'>0.78821E+02</wgt>
<wgt id='3447'>0.79128E+02</wgt>
<wgt id='3448'>0.79317E+02</wgt>
<wgt id='3449'>0.79170E+02</wgt>
<wgt id='3450'>0.78352E+02</wgt>
<wgt id='3451'>0.79181E+02</wgt>
<wgt id='3452'>0.78169E+02</wgt>
<wgt id='3453'>0.77377E+02</wgt>
<wgt id='3454'>0.77873E+02</wgt>
<wgt id='3455'>0.79242E+02</wgt>
<wgt id='3456'>0.78558E+02</wgt>
<wgt id='3457'>0.79384E+02</wgt>
<wgt id='3458'>0.78417E+02</wgt>
<wgt id='3459'>0.78303E+02</wgt>
<wgt id='3460'>0.78211E+02</wgt>
<wgt id='3461'>0.77601E+02</wgt>
<wgt id='3462'>0.78328E+02</wgt>
<wgt id='3463'>0.77490E+02</wgt>
<wgt id='3464'>0.78766E+02</wgt>
<wgt id='3465'>0.78715E+02</wgt>
<wgt id='3466'>0.78795E+02</wgt>
<wgt id='3467'>0.78018E+02</wgt>
<wgt id='3468'>0.77853E+02</wgt>
<wgt id='3469'>0.78185E+02</wgt>
<wgt id='3470'>0.78102E+02</wgt>
<wgt id='3471'>0.78154E+02</wgt>
<wgt id='3472'>0.77496E+02</wgt>
<wgt id='3473'>0.79145E+02</wgt>
<wgt id='3474'>0.78144E+02</wgt>
<wgt id='3475'>0.78582E+02</wgt>
<wgt id='3476'>0.78315E+02</wgt>
<wgt id='3477'>0.77743E+02</wgt>
<wgt id='3478'>0.79266E+02</wgt>
<wgt id='3479'>0.78708E+02</wgt>
<wgt id='3480'>0.78146E+02</wgt>
<wgt id='3481'>0.78670E+02</wgt>
<wgt id='3482'>0.78482E+02</wgt>
<wgt id='3483'>0.77615E+02</wgt>
<wgt id='3484'>0.78102E+02</wgt>
<wgt id='3485'>0.77987E+02</wgt>
<wgt id='3486'>0.76858E+02</wgt>
<wgt id='3487'>0.78553E+02</wgt>
<wgt id='3488'>0.78726E+02</wgt>
<wgt id='3489'>0.77523E+02</wgt>
<wgt id='3490'>0.79139E+02</wgt>
<wgt id='3491'>0.78702E+02</wgt>
<wgt id='3492'>0.78469E+02</wgt>
<wgt id='3493'>0.78329E+02</wgt>
<wgt id='3494'>0.76334E+02</wgt>
<wgt id='3495'>0.78620E+02</wgt>
<wgt id='3496'>0.77468E+02</wgt>
<wgt id='3497'>0.77979E+02</wgt>
<wgt id='3498'>0.78824E+02</wgt>
<wgt id='3499'>0.78181E+02</wgt>
<wgt id='3500'>0.79128E+02</wgt>
</rwgt>
</event>
<event>
     13 322200  8.11039E+01  2.87299E+02 -1.00000E+00  1.05044E-01
      21    -1     0     0   502   503  0.000000000E+00  0.000000000E+00  1.366696814E+02  1.366696814E+02  0.000000000E+00  0.00000E+00  9.000E+00
       2    -1     0     0   503     0  0.000000000E+00  0.000000000E+00 -3.106767417E+03  3.106767417E+03  0.000000000E+00  0.00000E+00  9.000E+00
       6     2     1     2   502     0 -7.983592530E+01 -5.042503981E+01 -1.328442069E+03  1.342896168E+03  1.723233242E+02  0.00000E+00  9.000E+00
      -6     2     1     2     0   512  1.615633542E+02  3.258543144E+02 -2.284862312E+02  4.584630699E+02  1.603080691E+02  0.00000E+00  9.000E+00
       2     1     1     2   512     0 -8.172742890E+01 -2.754292746E+02 -1.413169435E+03  1.442077860E+03  2.100000000E-01  0.00000E+00  9.000E+00
      24     2     3     3     0     0 -2.115378395E+01 -6.994882457E+01 -4.712402278E+02  4.834513636E+02  7.948300466E+01  0.00000E+00  9.000E+00
       5     1     3     3   502     0 -5.868214135E+01  1.952378476E+01 -8.572018411E+02  8.594448044E+02  5.060000000E+00  0.00000E+00 -1.000E+00
     -24     2     4     4     0     0  1.533708570E+02  1.747260839E+02 -1.340913704E+02  2.800174132E+02  7.985882490E+01  0.00000E+00  9.000E+00
      -5     1     4     4     0   512  8.192497219E+00  1.511282305E+02 -9.439486073E+01  1.784456567E+02  5.060000000E+00  0.00000E+00  1.000E+00
     -15     1     6     6     0     0  8.108094090E+00  3.551282547E+00 -4.562407611E+00  1.011563590E+01  1.777000000E+00  0.00000E+00  1.000E+00
      16     1     6     6     0     0 -2.926187804E+01 -7.350010712E+01 -4.666778202E+02  4.733357277E+02  0.000000000E+00  0.00000E+00 -1.000E+00
      11     1     8     8     0     0  1.501808218E+02  1.800097031E+02 -1.386332065E+02  2.723544353E+02  5.100000000E-04  0.00000E+00 -1.000E+00
     -12     1     8     8     0     0  3.190035180E+00 -5.283619225E+00  4.541836060E+00  7.662977970E+00  0.000000000E+00  0.00000E+00  1.000E+00
#rwgt            2          36   16.742224017528375               10        7450           0
<rwgt>
<wgt id='1001'>0.81104E+02</wgt>
<wgt id='1002'>0.73359E+02</wgt>
<wgt id='1003'>0.90058E+02</wgt>
<wgt id='1004'>0.62981E+02</wgt>
<wgt id='1005'>0.56967E+02</wgt>
<wgt id='1006'>0.69934E+02</wgt>
<wgt id='1007'>0.10703E+03</wgt>
<wgt id='1008'>0.96806E+02</wgt>
<wgt id='1009'>0.11884E+03</wgt>
<wgt id='2000'>0.81104E+02</wgt>
<wgt id='2001'>0.81371E+02</wgt>
<wgt id='2002'>0.81027E+02</wgt>
<wgt id='2003'>0.81503E+02</wgt>
<wgt id='2004'>0.81202E+02</wgt>
<wgt id='2005'>0.81510E+02</wgt>
<wgt id='2006'>0.80978E+02</wgt>
<wgt id='2007'>0.81197E+02</wgt>
<wgt id='2008'>0.81292E+02</wgt>
<wgt id='2009'>0.81200E+02</wgt>
<wgt id='2010'>0.81190E+02</wgt>
<wgt id='2011'>0.80419E+02</wgt>
<wgt id='2012'>0.81083E+02</wgt>
<wgt id='2013'>0.81255E+02</wgt>
<wgt id='2014'>0.80956E+02</wgt>
<wgt id='2015'>0.81128E+02</wgt>
<wgt id='2016'>0.80980E+02</wgt>
<wgt id='2017'>0.80960E+02</wgt>
<wgt id='2018'>0.80889E+02</wgt>
<wgt id='2019'>0.81082E+02</wgt>
<wgt id='2020'>0.80496E+02</wgt>
<wgt id='2021'>0.81286E+02</wgt>
<wgt id='2022'>0.81310E+02</wgt>
<wgt id='2023'>0.80996E+02</wgt>
<wgt id='2024'>0.81498E+02</wgt>
<wgt id='2025'>0.81248E+02</wgt>
<wgt id='2026'>0.81315E+02</wgt>
<wgt id='2027'>0.80781E+02</wgt>
<wgt id='2028'>0.81212E+02</wgt>
<wgt id='2029'>0.81642E+02</wgt>
<wgt id='2030'>0.81181E+02</wgt>
<wgt id='2031'>0.81775E+02</wgt>
<wgt id='2032'>0.81193E+02</wgt>
<wgt id='2033'>0.80786E+02</wgt>
<wgt id='2034'>0.81339E+02</wgt>
<wgt id='2035'>0.81184E+02</wgt>
<wgt id='2036'>0.80641E+02</wgt>
<wgt id='2037'>0.81370E+02</wgt>
<wgt id='2038'>0.80567E+02</wgt>
<wgt id='2039'>0.80620E+02</wgt>
<wgt id='2040'>0.81250E+02</wgt>
<wgt id='2041'>0.80867E+02</wgt>
<wgt id='2042'>0.80686E+02</wgt>
<wgt id='2043'>0.81018E+02</wgt>
<wgt id='2044'>0.81253E+02</wgt>
<wgt id='2045'>0.81246E+02</wgt>
<wgt id='2046'>0.81142E+02</wgt>
<wgt id='2047'>0.81105E+02</wgt>
<wgt id='2048'>0.81273E+02</wgt>
<wgt id='2049'>0.81400E+02</wgt>
<wgt id='2050'>0.80789E+02</wgt>
<wgt id='2051'>0.81215E+02</wgt>
<wgt id='2052'>0.81039E+02</wgt>
<wgt id='2053'>0.80793E+02</wgt>
<wgt id='2054'>0.81568E+02</wgt>
<wgt id='2055'>0.81196E+02</wgt>
<wgt id='2056'>0.81217E+02</wgt>
<wgt id='2057'>0.80795E+02</wgt>
<wgt id='2058'>0.81401E+02</wgt>
<wgt id='2059'>0.80987E+02</wgt>
<wgt id='2060'>0.81038E+02</wgt>
<wgt id='2061'>0.81409E+02</wgt>
<wgt id='2062'>0.81359E+02</wgt>
<wgt id='2063'>0.81330E+02</wgt>
<wgt id='2064'>0.81610E+02</wgt>
<wgt id='2065'>0.81085E+02</wgt>
<wgt id='2066'>0.81209E+02</wgt>
<wgt id='2067'>0.81352E+02</wgt>
<wgt id='2068'>0.81316E+02</wgt>
<wgt id='2069'>0.81057E+02</wgt>
<wgt id='2070'>0.81004E+02</wgt>
<wgt id='2071'>0.81185E+02</wgt>
<wgt id='2072'>0.80922E+02</wgt>
<wgt id='2073'>0.80979E+02</wgt>
<wgt id='2074'>0.81144E+02</wgt>
<wgt id='2075'>0.80993E+02</wgt>
<wgt id='2076'>0.81142E+02</wgt>
<wgt id='2077'>0.81061E+02</wgt>
<wgt id='2078'>0.81108E+02</wgt>
<wgt id='2079'>0.81078E+02</wgt>
<wgt id='2080'>0.81182E+02</wgt>
<wgt id='2081'>0.81246E+02</wgt>
<wgt id='2082'>0.81072E+02</wgt>
<wgt id='2083'>0.81148E+02</wgt>
<wgt id='2084'>0.81087E+02</wgt>
<wgt id='2085'>0.81108E+02</wgt>
<wgt id='2086'>0.81066E+02</wgt>
<wgt id='2087'>0.81051E+02</wgt>
<wgt id='2088'>0.81069E+02</wgt>
<wgt id='2089'>0.80981E+02</wgt>
<wgt id='2090'>0.81205E+02</wgt>
<wgt id='2091'>0.81088E+02</wgt>
<wgt id='2092'>0.81164E+02</wgt>
<wgt id='2093'>0.80992E+02</wgt>
<wgt id='2094'>0.81202E+02</wgt>
<wgt id='2095'>0.81162E+02</wgt>
<wgt id='2096'>0.81095E+02</wgt>
<wgt id='2097'>0.81057E+02</wgt>
<wgt id='2098'>0.81126E+02</wgt>
<wgt id='2099'>0.81058E+02</wgt>
<wgt id='2100'>0.81104E+02</wgt>
<wgt id='2101'>0.78464E+02</wgt>
<wgt id='2102'>0.83961E+02</wgt>
<wgt id='2200'>0.81247E+02</wgt>
<wgt id='2201'>0.67760E+02</wgt>
<wgt id='2202'>0.70073E+02</wgt>
<wgt id='2203'>0.73371E+02</wgt>
<wgt id='2204'>0.76184E+02</wgt>
<wgt id='2205'>0.79887E+02</wgt>
<wgt id='2206'>0.82489E+02</wgt>
<wgt id='2207'>0.86340E+02</wgt>
<wgt id='2208'>0.88641E+02</wgt>
<wgt id='2300'>0.83025E+02</wgt>
<wgt id='2301'>0.83482E+02</wgt>
<wgt id='2302'>0.82615E+02</wgt>
<wgt id='2303'>0.83377E+02</wgt>
<wgt id='2304'>0.82781E+02</wgt>
<wgt id='2305'>0.83328E+02</wgt>
<wgt id='2306'>0.83368E+02</wgt>
<wgt id='2307'>0.83227E+02</wgt>
<wgt id='2308'>0.82847E+02</wgt>
<wgt id='2309'>0.83120E+02</wgt>
<wgt id='2310'>0.83020E+02</wgt>
<wgt id='2311'>0.83011E+02</wgt>
<wgt id='2312'>0.82877E+02</wgt>
<wgt id='2313'>0.82925E+02</wgt>
<wgt id='2314'>0.83400E+02</wgt>
<wgt id='2315'>0.82862E+02</wgt>
<wgt id='2316'>0.83026E+02</wgt>
<wgt id='2317'>0.83087E+02</wgt>
<wgt id='2318'>0.82876E+02</wgt>
<wgt id='2319'>0.82606E+02</wgt>
<wgt id='2320'>0.82569E+02</wgt>
<wgt id='2321'>0.82910E+02</wgt>
<wgt id='2322'>0.83014E+02</wgt>
<wgt id='2323'>0.83188E+02</wgt>
<wgt id='2324'>0.82870E+02</wgt>
<wgt id='2325'>0.82856E+02</wgt>
<wgt id='2326'>0.83070E+02</wgt>
<wgt id='2327'>0.82962E+02</wgt>
<wgt id='2328'>0.83327E+02</wgt>
<wgt id='2329'>0.83576E+02</wgt>
<wgt id='2330'>0.82191E+02</wgt>
<wgt id='2331'>0.82630E+02</wgt>
<wgt id='2332'>0.83139E+02</wgt>
<wgt id='2333'>0.83068E+02</wgt>
<wgt id='2334'>0.82998E+02</wgt>
<wgt id='2335'>0.83130E+02</wgt>
<wgt id='2336'>0.82961E+02</wgt>
<wgt id='2337'>0.82911E+02</wgt>
<wgt id='2338'>0.82899E+02</wgt>
<wgt id='2339'>0.82986E+02</wgt>
<wgt id='2340'>0.82779E+02</wgt>
<wgt id='2341'>0.83308E+02</wgt>
<wgt id='2342'>0.82986E+02</wgt>
<wgt id='2343'>0.82847E+02</wgt>
<wgt id='2344'>0.83018E+02</wgt>
<wgt id='2345'>0.83138E+02</wgt>
<wgt id='2346'>0.82989E+02</wgt>
<wgt id='2347'>0.82862E+02</wgt>
<wgt id='2348'>0.82950E+02</wgt>
<wgt id='2349'>0.83010E+02</wgt>
<wgt id='2350'>0.82730E+02</wgt>
<wgt id='2351'>0.83486E+02</wgt>
<wgt id='2352'>0.83105E+02</wgt>
<wgt id='2353'>0.83391E+02</wgt>
<wgt id='2354'>0.83077E+02</wgt>
<wgt id='2355'>0.82938E+02</wgt>
<wgt id='2356'>0.83515E+02</wgt>
<wgt id='2357'>0.82496E+02</wgt>
<wgt id='2358'>0.82919E+02</wgt>
<wgt id='2359'>0.84096E+02</wgt>
<wgt id='2360'>0.82818E+02</wgt>
<wgt id='2361'>0.82895E+02</wgt>
<wgt id='2362'>0.83015E+02</wgt>
<wgt id='2363'>0.82824E+02</wgt>
<wgt id='2364'>0.82921E+02</wgt>
<wgt id='2365'>0.82926E+02</wgt>
<wgt id='2366'>0.82846E+02</wgt>
<wgt id='2367'>0.83296E+02</wgt>
<wgt id='2368'>0.83079E+02</wgt>
<wgt id='2369'>0.82962E+02</wgt>
<wgt id='2370'>0.83494E+02</wgt>
<wgt id='2371'>0.82967E+02</wgt>
<wgt id='2372'>0.83104E+02</wgt>
<wgt id='2373'>0.83179E+02</wgt>
<wgt id='2374'>0.83148E+02</wgt>
<wgt id='2375'>0.82962E+02</wgt>
<wgt id='2376'>0.83241E+02</wgt>
<wgt id='2377'>0.83062E+02</wgt>
<wgt id='2378'>0.83201E+02</wgt>
<wgt id='2379'>0.82858E+02</wgt>
<wgt id='2380'>0.82737E+02</wgt>
<wgt id='2381'>0.83118E+02</wgt>
<wgt id='2382'>0.82981E+02</wgt>
<wgt id='2383'>0.82871E+02</wgt>
<wgt id='2384'>0.82777E+02</wgt>
<wgt id='2385'>0.83117E+02</wgt>
<wgt id='2386'>0.83134E+02</wgt>
<wgt id='2387'>0.83047E+02</wgt>
<wgt id='2388'>0.83289E+02</wgt>
<wgt id='2389'>0.82893E+02</wgt>
<wgt id='2390'>0.83079E+02</wgt>
<wgt id='2391'>0.82993E+02</wgt>
<wgt id='2392'>0.83335E+02</wgt>
<wgt id='2393'>0.83171E+02</wgt>
<wgt id='2394'>0.82915E+02</wgt>
<wgt id='2395'>0.82971E+02</wgt>
<wgt id='2396'>0.83177E+02</wgt>
<wgt id='2397'>0.82909E+02</wgt>
<wgt id='2398'>0.82905E+02</wgt>
<wgt id='2399'>0.82951E+02</wgt>
<wgt id='2400'>0.83195E+02</wgt>
<wgt id='2401'>0.80558E+02</wgt>
<wgt id='2402'>0.85845E+02</wgt>
<wgt id='2500'>0.80923E+02</wgt>
<wgt id='2501'>0.85626E+02</wgt>
<wgt id='2600'>0.78122E+02</wgt>
<wgt id='2601'>0.77938E+02</wgt>
<wgt id='2602'>0.78043E+02</wgt>
<wgt id='2603'>0.78130E+02</wgt>
<wgt id='2604'>0.78153E+02</wgt>
<wgt id='2605'>0.78128E+02</wgt>
<wgt id='2606'>0.77876E+02</wgt>
<wgt id='2607'>0.78215E+02</wgt>
<wgt id='2608'>0.77820E+02</wgt>
<wgt id='2609'>0.78174E+02</wgt>
<wgt id='2610'>0.78114E+02</wgt>
<wgt id='2611'>0.78200E+02</wgt>
<wgt id='2612'>0.78310E+02</wgt>
<wgt id='2613'>0.77830E+02</wgt>
<wgt id='2614'>0.78008E+02</wgt>
<wgt id='2615'>0.78254E+02</wgt>
<wgt id='2616'>0.77874E+02</wgt>
<wgt id='2617'>0.78219E+02</wgt>
<wgt id='2618'>0.77971E+02</wgt>
<wgt id='2619'>0.77590E+02</wgt>
<wgt id='2620'>0.78317E+02</wgt>
<wgt id='2621'>0.78353E+02</wgt>
<wgt id='2622'>0.78082E+02</wgt>
<wgt id='2623'>0.78045E+02</wgt>
<wgt id='2624'>0.78512E+02</wgt>
<wgt id='2625'>0.77717E+02</wgt>
<wgt id='2626'>0.78275E+02</wgt>
<wgt id='2627'>0.78579E+02</wgt>
<wgt id='2628'>0.78261E+02</wgt>
<wgt id='2629'>0.78213E+02</wgt>
<wgt id='2630'>0.78322E+02</wgt>
<wgt id='2631'>0.77950E+02</wgt>
<wgt id='2632'>0.78263E+02</wgt>
<wgt id='2633'>0.78337E+02</wgt>
<wgt id='2634'>0.78252E+02</wgt>
<wgt id='2635'>0.77952E+02</wgt>
<wgt id='2636'>0.78519E+02</wgt>
<wgt id='2637'>0.78471E+02</wgt>
<wgt id='2638'>0.78006E+02</wgt>
<wgt id='2639'>0.77840E+02</wgt>
<wgt id='2640'>0.78225E+02</wgt>
<wgt id='2641'>0.78069E+02</wgt>
<wgt id='2642'>0.78110E+02</wgt>
<wgt id='2643'>0.78251E+02</wgt>
<wgt id='2644'>0.78192E+02</wgt>
<wgt id='2645'>0.78257E+02</wgt>
<wgt id='2646'>0.78090E+02</wgt>
<wgt id='2647'>0.78258E+02</wgt>
<wgt id='2648'>0.78059E+02</wgt>
<wgt id='2649'>0.78173E+02</wgt>
<wgt id='2650'>0.78035E+02</wgt>
<wgt id='2651'>0.76801E+02</wgt>
<wgt id='2652'>0.79274E+02</wgt>
<wgt id='2700'>0.75370E+02</wgt>
<wgt id='2701'>0.76801E+02</wgt>
<wgt id='2702'>0.77611E+02</wgt>
<wgt id='2703'>0.78447E+02</wgt>
<wgt id='2704'>0.79274E+02</wgt>
<wgt id='2705'>0.80651E+02</wgt>
<wgt id='2800'>0.84625E+02</wgt>
<wgt id='4000'>0.80771E+02</wgt>
<wgt id='4001'>0.81138E+02</wgt>
<wgt id='4002'>0.81061E+02</wgt>
<wgt id='4003'>0.82752E+02</wgt>
<wgt id='4004'>0.78281E+02</wgt>
<wgt id='4005'>0.80452E+02</wgt>
<wgt id='4006'>0.80752E+02</wgt>
<wgt id='4007'>0.81624E+02</wgt>
<wgt id='4008'>0.79905E+02</wgt>
<wgt id='4009'>0.81319E+02</wgt>
<wgt id='4010'>0.80374E+02</wgt>
<wgt id='4011'>0.80386E+02</wgt>
<wgt id='4012'>0.81226E+02</wgt>
<wgt id='4013'>0.81197E+02</wgt>
<wgt id='4014'>0.79982E+02</wgt>
<wgt id='4015'>0.81200E+02</wgt>
<wgt id='4016'>0.80156E+02</wgt>
<wgt id='4017'>0.80638E+02</wgt>
<wgt id='4018'>0.80942E+02</wgt>
<wgt id='4019'>0.81449E+02</wgt>
<wgt id='4020'>0.79859E+02</wgt>
<wgt id='4021'>0.80793E+02</wgt>
<wgt id='4022'>0.80725E+02</wgt>
<wgt id='4023'>0.80699E+02</wgt>
<wgt id='4024'>0.80618E+02</wgt>
<wgt id='4025'>0.80536E+02</wgt>
<wgt id='4026'>0.81400E+02</wgt>
<wgt id='4027'>0.80832E+02</wgt>
<wgt id='4028'>0.80737E+02</wgt>
<wgt id='4029'>0.81196E+02</wgt>
<wgt id='4030'>0.80193E+02</wgt>
<wgt id='4031'>0.81045E+02</wgt>
<wgt id='4032'>0.79820E+02</wgt>
<wgt id='4033'>0.79831E+02</wgt>
<wgt id='4034'>0.81916E+02</wgt>
<wgt id='4035'>0.80776E+02</wgt>
<wgt id='4036'>0.80707E+02</wgt>
<wgt id='4037'>0.81028E+02</wgt>
<wgt id='4038'>0.80524E+02</wgt>
<wgt id='4039'>0.81413E+02</wgt>
<wgt id='4040'>0.80173E+02</wgt>
<wgt id='4041'>0.80900E+02</wgt>
<wgt id='4042'>0.80631E+02</wgt>
<wgt id='4043'>0.79127E+02</wgt>
<wgt id='4044'>0.82164E+02</wgt>
<wgt id='4045'>0.81588E+02</wgt>
<wgt id='4046'>0.80394E+02</wgt>
<wgt id='4047'>0.80696E+02</wgt>
<wgt id='4048'>0.80550E+02</wgt>
<wgt id='4049'>0.80909E+02</wgt>
<wgt id='4050'>0.80480E+02</wgt>
<wgt id='4051'>0.81507E+02</wgt>
<wgt id='4052'>0.80203E+02</wgt>
<wgt id='4053'>0.80886E+02</wgt>
<wgt id='4054'>0.80727E+02</wgt>
<wgt id='4055'>0.80963E+02</wgt>
<wgt id='4056'>0.80483E+02</wgt>
<wgt id='4057'>0.80410E+02</wgt>
<wgt id='4058'>0.81031E+02</wgt>
<wgt id='4100'>0.82777E+02</wgt>
<wgt id='4101'>0.81805E+02</wgt>
<wgt id='4102'>0.79699E+02</wgt>
<wgt id='4103'>0.78601E+02</wgt>
<wgt id='4200'>0.78957E+02</wgt>
<wgt id='4201'>0.79235E+02</wgt>
<wgt id='4202'>0.78910E+02</wgt>
<wgt id='4203'>0.79566E+02</wgt>
<wgt id='4204'>0.78215E+02</wgt>
<wgt id='4205'>0.79173E+02</wgt>
<wgt id='4206'>0.78610E+02</wgt>
<wgt id='4207'>0.79041E+02</wgt>
<wgt id='4208'>0.78816E+02</wgt>
<wgt id='4209'>0.80112E+02</wgt>
<wgt id='4210'>0.78410E+02</wgt>
<wgt id='4211'>0.79247E+02</wgt>
<wgt id='4212'>0.78651E+02</wgt>
<wgt id='4213'>0.79248E+02</wgt>
<wgt id='4214'>0.78436E+02</wgt>
<wgt id='4215'>0.78663E+02</wgt>
<wgt id='4216'>0.79191E+02</wgt>
<wgt id='4217'>0.78333E+02</wgt>
<wgt id='4218'>0.79417E+02</wgt>
<wgt id='4219'>0.78147E+02</wgt>
<wgt id='4220'>0.79586E+02</wgt>
<wgt id='4221'>0.79221E+02</wgt>
<wgt id='4222'>0.78846E+02</wgt>
<wgt id='4223'>0.79063E+02</wgt>
<wgt id='4224'>0.78951E+02</wgt>
<wgt id='4225'>0.77886E+02</wgt>
<wgt id='4226'>0.79914E+02</wgt>
<wgt id='4227'>0.79730E+02</wgt>
<wgt id='4228'>0.78399E+02</wgt>
<wgt id='4229'>0.79875E+02</wgt>
<wgt id='4230'>0.77951E+02</wgt>
<wgt id='4231'>0.79109E+02</wgt>
<wgt id='4232'>0.78782E+02</wgt>
<wgt id='4233'>0.78360E+02</wgt>
<wgt id='4234'>0.79562E+02</wgt>
<wgt id='4235'>0.78485E+02</wgt>
<wgt id='4236'>0.79456E+02</wgt>
<wgt id='4237'>0.78404E+02</wgt>
<wgt id='4238'>0.79501E+02</wgt>
<wgt id='4239'>0.80329E+02</wgt>
<wgt id='4240'>0.77991E+02</wgt>
<wgt id='4241'>0.79464E+02</wgt>
<wgt id='4242'>0.78289E+02</wgt>
<wgt id='4243'>0.79269E+02</wgt>
<wgt id='4244'>0.78659E+02</wgt>
<wgt id='4245'>0.78119E+02</wgt>
<wgt id='4246'>0.79757E+02</wgt>
<wgt id='4247'>0.78024E+02</wgt>
<wgt id='4248'>0.79759E+02</wgt>
<wgt id='4249'>0.79807E+02</wgt>
<wgt id='4250'>0.77982E+02</wgt>
<wgt id='4251'>0.78155E+02</wgt>
<wgt id='4252'>0.79409E+02</wgt>
<wgt id='4253'>0.78261E+02</wgt>
<wgt id='4254'>0.79757E+02</wgt>
<wgt id='4255'>0.79129E+02</wgt>
<wgt id='4256'>0.78744E+02</wgt>
<wgt id='4257'>0.78233E+02</wgt>
<wgt id='4258'>0.79170E+02</wgt>
<wgt id='4300'>0.80229E+02</wgt>
<wgt id='4301'>0.79215E+02</wgt>
<wgt id='5000'>0.80559E+02</wgt>
<wgt id='5001'>0.80565E+02</wgt>
<wgt id='5002'>0.80551E+02</wgt>
<wgt id='5003'>0.80569E+02</wgt>
<wgt id='5004'>0.80550E+02</wgt>
<wgt id='5005'>0.80547E+02</wgt>
<wgt id='5006'>0.80579E+02</wgt>
<wgt id='5007'>0.80572E+02</wgt>
<wgt id='5008'>0.80549E+02</wgt>
<wgt id='5009'>0.80604E+02</wgt>
<wgt id='5010'>0.80513E+02</wgt>
<wgt id='5011'>0.80872E+02</wgt>
<wgt id='5012'>0.80259E+02</wgt>
<wgt id='5013'>0.81029E+02</wgt>
<wgt id='5014'>0.80225E+02</wgt>
<wgt id='5015'>0.80683E+02</wgt>
<wgt id='5016'>0.80683E+02</wgt>
<wgt id='5017'>0.79918E+02</wgt>
<wgt id='5018'>0.80998E+02</wgt>
<wgt id='5019'>0.80661E+02</wgt>
<wgt id='5020'>0.80417E+02</wgt>
<wgt id='5021'>0.80376E+02</wgt>
<wgt id='5022'>0.80847E+02</wgt>
<wgt id='5023'>0.80536E+02</wgt>
<wgt id='5024'>0.80613E+02</wgt>
<wgt id='5025'>0.80593E+02</wgt>
<wgt id='5026'>0.80514E+02</wgt>
<wgt id='5027'>0.80495E+02</wgt>
<wgt id='5028'>0.80731E+02</wgt>
<wgt id='5029'>0.80510E+02</wgt>
<wgt id='5030'>0.80580E+02</wgt>
<wgt id='5031'>0.80670E+02</wgt>
<wgt id='5032'>0.80222E+02</wgt>
<wgt id='5033'>0.80711E+02</wgt>
<wgt id='5034'>0.80389E+02</wgt>
<wgt id='5035'>0.80749E+02</wgt>
<wgt id='5036'>0.80295E+02</wgt>
<wgt id='5037'>0.80784E+02</wgt>
<wgt id='5038'>0.80430E+02</wgt>
<wgt id='5039'>0.80561E+02</wgt>
<wgt id='5040'>0.80545E+02</wgt>
<wgt id='5041'>0.80944E+02</wgt>
<wgt id='5042'>0.80176E+02</wgt>
<wgt id='5043'>0.80160E+02</wgt>
<wgt id='5044'>0.80914E+02</wgt>
<wgt id='5045'>0.80334E+02</wgt>
<wgt id='5046'>0.81014E+02</wgt>
<wgt id='5047'>0.80514E+02</wgt>
<wgt id='5048'>0.80785E+02</wgt>
<wgt id='5049'>0.80613E+02</wgt>
<wgt id='5050'>0.80465E+02</wgt>
<wgt id='5051'>0.80607E+02</wgt>
<wgt id='5052'>0.80505E+02</wgt>
<wgt id='5053'>0.80310E+02</wgt>
<wgt id='5054'>0.80749E+02</wgt>
<wgt id='5055'>0.80604E+02</wgt>
<wgt id='5056'>0.80478E+02</wgt>
<wgt id='5057'>0.80520E+02</wgt>
<wgt id='5058'>0.80586E+02</wgt>
<wgt id='5059'>0.80456E+02</wgt>
<wgt id='5060'>0.80617E+02</wgt>
<wgt id='5061'>0.80617E+02</wgt>
<wgt id='5062'>0.80562E+02</wgt>
<wgt id='5063'>0.80510E+02</wgt>
<wgt id='5064'>0.80669E+02</wgt>
<wgt id='5100'>0.80559E+02</wgt>
<wgt id='5101'>0.80603E+02</wgt>
<wgt id='6000'>0.80093E+02</wgt>
<wgt id='6001'>0.79923E+02</wgt>
<wgt id='6002'>0.80329E+02</wgt>
<wgt id='6003'>0.80012E+02</wgt>
<wgt id='6004'>0.79784E+02</wgt>
<wgt id='6005'>0.80046E+02</wgt>
<wgt id='6006'>0.78688E+02</wgt>
<wgt id='6007'>0.80063E+02</wgt>
<wgt id='6008'>0.79437E+02</wgt>
<wgt id='6009'>0.80418E+02</wgt>
<wgt id='6010'>0.79640E+02</wgt>
<wgt id='6011'>0.80138E+02</wgt>
<wgt id='6012'>0.80249E+02</wgt>
<wgt id='6013'>0.79971E+02</wgt>
<wgt id='6014'>0.80259E+02</wgt>
<wgt id='6015'>0.79896E+02</wgt>
<wgt id='6016'>0.80128E+02</wgt>
<wgt id='6017'>0.80156E+02</wgt>
<wgt id='6018'>0.80112E+02</wgt>
<wgt id='6019'>0.80140E+02</wgt>
<wgt id='6020'>0.80174E+02</wgt>
<wgt id='6021'>0.80114E+02</wgt>
<wgt id='6022'>0.80092E+02</wgt>
<wgt id='6023'>0.80053E+02</wgt>
<wgt id='6024'>0.79864E+02</wgt>
<wgt id='6025'>0.80211E+02</wgt>
<wgt id='6026'>0.80323E+02</wgt>
<wgt id='6027'>0.79937E+02</wgt>
<wgt id='6028'>0.80013E+02</wgt>
<wgt id='6029'>0.80105E+02</wgt>
<wgt id='6030'>0.80428E+02</wgt>
<wgt id='6031'>0.79941E+02</wgt>
<wgt id='6032'>0.80143E+02</wgt>
<wgt id='6033'>0.80115E+02</wgt>
<wgt id='6034'>0.80152E+02</wgt>
<wgt id='6035'>0.80162E+02</wgt>
<wgt id='6036'>0.80243E+02</wgt>
<wgt id='6037'>0.80097E+02</wgt>
<wgt id='6038'>0.80137E+02</wgt>
<wgt id='6039'>0.80152E+02</wgt>
<wgt id='6040'>0.80063E+02</wgt>
<wgt id='6041'>0.79009E+02</wgt>
<wgt id='6042'>0.80851E+02</wgt>
<wgt id='7000'>0.87199E+02</wgt>
<wgt id='7001'>0.86593E+02</wgt>
<wgt id='7002'>0.86717E+02</wgt>
<wgt id='7003'>0.86639E+02</wgt>
<wgt id='7004'>0.86672E+02</wgt>
<wgt id='7005'>0.86312E+02</wgt>
<wgt id='7006'>0.86998E+02</wgt>
<wgt id='7007'>0.86759E+02</wgt>
<wgt id='7008'>0.86557E+02</wgt>
<wgt id='7009'>0.87102E+02</wgt>
<wgt id='7010'>0.86214E+02</wgt>
<wgt id='7011'>0.87307E+02</wgt>
<wgt id='7012'>0.86007E+02</wgt>
<wgt id='7013'>0.87325E+02</wgt>
<wgt id='7014'>0.85986E+02</wgt>
<wgt id='7015'>0.86744E+02</wgt>
<wgt id='7016'>0.86461E+02</wgt>
<wgt id='7017'>0.86218E+02</wgt>
<wgt id='7018'>0.87091E+02</wgt>
<wgt id='7019'>0.86299E+02</wgt>
<wgt id='7020'>0.87015E+02</wgt>
<wgt id='7021'>0.86157E+02</wgt>
<wgt id='7022'>0.87158E+02</wgt>
<wgt id='7023'>0.86477E+02</wgt>
<wgt id='7024'>0.86394E+02</wgt>
<wgt id='7025'>0.86176E+02</wgt>
<wgt id='7026'>0.86754E+02</wgt>
<wgt id='7027'>0.86357E+02</wgt>
<wgt id='7028'>0.86975E+02</wgt>
<wgt id='8000'>0.84084E+02</wgt>
<wgt id='8001'>0.84078E+02</wgt>
<wgt id='8002'>0.84097E+02</wgt>
<wgt id='8003'>0.84064E+02</wgt>
<wgt id='8004'>0.84082E+02</wgt>
<wgt id='8005'>0.83981E+02</wgt>
<wgt id='8006'>0.84170E+02</wgt>
<wgt id='8007'>0.84150E+02</wgt>
<wgt id='8008'>0.83858E+02</wgt>
<wgt id='8009'>0.84073E+02</wgt>
<wgt id='8010'>0.84017E+02</wgt>
<wgt id='8011'>0.84271E+02</wgt>
<wgt id='8012'>0.84138E+02</wgt>
<wgt id='8013'>0.84054E+02</wgt>
<wgt id='8014'>0.84064E+02</wgt>
<wgt id='8015'>0.83996E+02</wgt>
<wgt id='8016'>0.84070E+02</wgt>
<wgt id='8017'>0.83975E+02</wgt>
<wgt id='8018'>0.84041E+02</wgt>
<wgt id='8019'>0.84131E+02</wgt>
<wgt id='8020'>0.83630E+02</wgt>
<wgt id='8021'>0.84033E+02</wgt>
<wgt id='8022'>0.83863E+02</wgt>
<wgt id='8023'>0.83948E+02</wgt>
<wgt id='8024'>0.84169E+02</wgt>
<wgt id='8025'>0.84236E+02</wgt>
<wgt id='8026'>0.84189E+02</wgt>
<wgt id='8027'>0.83847E+02</wgt>
<wgt id='8028'>0.84124E+02</wgt>
<wgt id='8029'>0.83512E+02</wgt>
<wgt id='3000'>0.81104E+02</wgt>
<wgt id='3001'>0.81117E+02</wgt>
<wgt id='3002'>0.81379E+02</wgt>
<wgt id='3003'>0.82520E+02</wgt>
<wgt id='3004'>0.80098E+02</wgt>
<wgt id='3005'>0.83398E+02</wgt>
<wgt id='3006'>0.81258E+02</wgt>
<wgt id='3007'>0.77564E+02</wgt>
<wgt id='3008'>0.82720E+02</wgt>
<wgt id='3009'>0.79769E+02</wgt>
<wgt id='3010'>0.81645E+02</wgt>
<wgt id='3011'>0.81643E+02</wgt>
<wgt id='3012'>0.79928E+02</wgt>
<wgt id='3013'>0.80191E+02</wgt>
<wgt id='3014'>0.81487E+02</wgt>
<wgt id='3015'>0.81878E+02</wgt>
<wgt id='3016'>0.81775E+02</wgt>
<wgt id='3017'>0.81958E+02</wgt>
<wgt id='3018'>0.81228E+02</wgt>
<wgt id='3019'>0.80408E+02</wgt>
<wgt id='3020'>0.80443E+02</wgt>
<wgt id='3021'>0.85119E+02</wgt>
<wgt id='3022'>0.84749E+02</wgt>
<wgt id='3023'>0.81033E+02</wgt>
<wgt id='3024'>0.79333E+02</wgt>
<wgt id='3025'>0.84042E+02</wgt>
<wgt id='3026'>0.84765E+02</wgt>
<wgt id='3027'>0.79038E+02</wgt>
<wgt id='3028'>0.81434E+02</wgt>
<wgt id='3029'>0.79572E+02</wgt>
<wgt id='3030'>0.80711E+02</wgt>
<wgt id='3031'>0.82910E+02</wgt>
<wgt id='3032'>0.79113E+02</wgt>
<wgt id='3033'>0.83034E+02</wgt>
<wgt id='3034'>0.81753E+02</wgt>
<wgt id='3035'>0.79885E+02</wgt>
<wgt id='3036'>0.82710E+02</wgt>
<wgt id='3037'>0.79304E+02</wgt>
<wgt id='3038'>0.78106E+02</wgt>
<wgt id='3039'>0.75209E+02</wgt>
<wgt id='3040'>0.78691E+02</wgt>
<wgt id='3041'>0.82331E+02</wgt>
<wgt id='3042'>0.80329E+02</wgt>
<wgt id='3043'>0.80682E+02</wgt>
<wgt id='3044'>0.78520E+02</wgt>
<wgt id='3045'>0.80343E+02</wgt>
<wgt id='3046'>0.81545E+02</wgt>
<wgt id='3047'>0.82865E+02</wgt>
<wgt id='3048'>0.79539E+02</wgt>
<wgt id='3049'>0.79688E+02</wgt>
<wgt id='3050'>0.80462E+02</wgt>
<wgt id='3051'>0.83998E+02</wgt>
<wgt id='3052'>0.80914E+02</wgt>
<wgt id='3053'>0.81270E+02</wgt>
<wgt id='3054'>0.85010E+02</wgt>
<wgt id='3055'>0.82450E+02</wgt>
<wgt id='3056'>0.77304E+02</wgt>
<wgt id='3057'>0.82291E+02</wgt>
<wgt id='3058'>0.84287E+02</wgt>
<wgt id='3059'>0.82032E+02</wgt>
<wgt id='3060'>0.85337E+02</wgt>
<wgt id='3061'>0.77465E+02</wgt>
<wgt id='3062'>0.82105E+02</wgt>
<wgt id='3063'>0.79317E+02</wgt>
<wgt id='3064'>0.82274E+02</wgt>
<wgt id='3065'>0.84617E+02</wgt>
<wgt id='3066'>0.79382E+02</wgt>
<wgt id='3067'>0.81717E+02</wgt>
<wgt id='3068'>0.82330E+02</wgt>
<wgt id='3069'>0.79738E+02</wgt>
<wgt id='3070'>0.79895E+02</wgt>
<wgt id='3071'>0.82514E+02</wgt>
<wgt id='3072'>0.78312E+02</wgt>
<wgt id='3073'>0.82960E+02</wgt>
<wgt id='3074'>0.82649E+02</wgt>
<wgt id='3075'>0.79997E+02</wgt>
<wgt id='3076'>0.87918E+02</wgt>
<wgt id='3077'>0.78635E+02</wgt>
<wgt id='3078'>0.83811E+02</wgt>
<wgt id='3079'>0.85628E+02</wgt>
<wgt id='3080'>0.77996E+02</wgt>
<wgt id='3081'>0.79752E+02</wgt>
<wgt id='3082'>0.81775E+02</wgt>
<wgt id='3083'>0.77765E+02</wgt>
<wgt id='3084'>0.81788E+02</wgt>
<wgt id='3085'>0.82804E+02</wgt>
<wgt id='3086'>0.72068E+02</wgt>
<wgt id='3087'>0.82650E+02</wgt>
<wgt id='3088'>0.77263E+02</wgt>
<wgt id='3089'>0.78092E+02</wgt>
<wgt id='3090'>0.80274E+02</wgt>
<wgt id='3091'>0.81358E+02</wgt>
<wgt id='3092'>0.81079E+02</wgt>
<wgt id='3093'>0.80525E+02</wgt>
<wgt id='3094'>0.81000E+02</wgt>
<wgt id='3095'>0.80657E+02</wgt>
<wgt id='3096'>0.81984E+02</wgt>
<wgt id='3097'>0.78466E+02</wgt>
<wgt id='3098'>0.82581E+02</wgt>
<wgt id='3099'>0.83535E+02</wgt>
<wgt id='3100'>0.81327E+02</wgt>
<wgt id='3200'>0.78147E+02</wgt>
<wgt id='3201'>0.77758E+02</wgt>
<wgt id='3202'>0.79191E+02</wgt>
<wgt id='3203'>0.78989E+02</wgt>
<wgt id='3204'>0.77054E+02</wgt>
<wgt id='3205'>0.78269E+02</wgt>
<wgt id='3206'>0.76851E+02</wgt>
<wgt id='3207'>0.77347E+02</wgt>
<wgt id='3208'>0.79201E+02</wgt>
<wgt id='3209'>0.78129E+02</wgt>
<wgt id='3210'>0.76990E+02</wgt>
<wgt id='3211'>0.77312E+02</wgt>
<wgt id='3212'>0.77235E+02</wgt>
<wgt id='3213'>0.78043E+02</wgt>
<wgt id='3214'>0.78641E+02</wgt>
<wgt id='3215'>0.78789E+02</wgt>
<wgt id='3216'>0.75114E+02</wgt>
<wgt id='3217'>0.77568E+02</wgt>
<wgt id='3218'>0.79931E+02</wgt>
<wgt id='3219'>0.79560E+02</wgt>
<wgt id='3220'>0.77369E+02</wgt>
<wgt id='3221'>0.80359E+02</wgt>
<wgt id='3222'>0.78463E+02</wgt>
<wgt id='3223'>0.79290E+02</wgt>
<wgt id='3224'>0.77096E+02</wgt>
<wgt id='3225'>0.77861E+02</wgt>
<wgt id='3226'>0.77972E+02</wgt>
<wgt id='3227'>0.77486E+02</wgt>
<wgt id='3228'>0.78173E+02</wgt>
<wgt id='3229'>0.78588E+02</wgt>
<wgt id='3230'>0.78096E+02</wgt>
<wgt id='3231'>0.80043E+02</wgt>
<wgt id='3232'>0.78838E+02</wgt>
<wgt id='3233'>0.79266E+02</wgt>
<wgt id='3234'>0.80759E+02</wgt>
<wgt id='3235'>0.75611E+02</wgt>
<wgt id='3236'>0.77862E+02</wgt>
<wgt id='3237'>0.75307E+02</wgt>
<wgt id='3238'>0.76152E+02</wgt>
<wgt id='3239'>0.79518E+02</wgt>
<wgt id='3240'>0.79935E+02</wgt>
<wgt id='3241'>0.77072E+02</wgt>
<wgt id='3242'>0.77975E+02</wgt>
<wgt id='3243'>0.78062E+02</wgt>
<wgt id='3244'>0.75245E+02</wgt>
<wgt id='3245'>0.77426E+02</wgt>
<wgt id='3246'>0.77859E+02</wgt>
<wgt id='3247'>0.75175E+02</wgt>
<wgt id='3248'>0.80368E+02</wgt>
<wgt id='3249'>0.76611E+02</wgt>
<wgt id='3250'>0.78972E+02</wgt>
<wgt id='3251'>0.78229E+02</wgt>
<wgt id='3252'>0.77819E+02</wgt>
<wgt id='3253'>0.82827E+02</wgt>
<wgt id='3254'>0.78710E+02</wgt>
<wgt id='3255'>0.78457E+02</wgt>
<wgt id='3256'>0.76325E+02</wgt>
<wgt id='3257'>0.76166E+02</wgt>
<wgt id='3258'>0.79793E+02</wgt>
<wgt id='3259'>0.77996E+02</wgt>
<wgt id='3260'>0.77742E+02</wgt>
<wgt id='3261'>0.78147E+02</wgt>
<wgt id='3262'>0.77821E+02</wgt>
<wgt id='3263'>0.78093E+02</wgt>
<wgt id='3264'>0.79592E+02</wgt>
<wgt id='3265'>0.76598E+02</wgt>
<wgt id='3266'>0.75307E+02</wgt>
<wgt id='3267'>0.79285E+02</wgt>
<wgt id='3268'>0.80382E+02</wgt>
<wgt id='3269'>0.78698E+02</wgt>
<wgt id='3270'>0.77530E+02</wgt>
<wgt id='3271'>0.79526E+02</wgt>
<wgt id='3272'>0.79361E+02</wgt>
<wgt id='3273'>0.78531E+02</wgt>
<wgt id='3274'>0.79402E+02</wgt>
<wgt id='3275'>0.79388E+02</wgt>
<wgt id='3276'>0.79876E+02</wgt>
<wgt id='3277'>0.76456E+02</wgt>
<wgt id='3278'>0.78267E+02</wgt>
<wgt id='3279'>0.78332E+02</wgt>
<wgt id='3280'>0.77382E+02</wgt>
<wgt id='3281'>0.75876E+02</wgt>
<wgt id='3282'>0.80445E+02</wgt>
<wgt id='3283'>0.79238E+02</wgt>
<wgt id='3284'>0.79013E+02</wgt>
<wgt id='3285'>0.75132E+02</wgt>
<wgt id='3286'>0.80385E+02</wgt>
<wgt id='3287'>0.79564E+02</wgt>
<wgt id='3288'>0.78494E+02</wgt>
<wgt id='3289'>0.79227E+02</wgt>
<wgt id='3290'>0.75791E+02</wgt>
<wgt id='3291'>0.78795E+02</wgt>
<wgt id='3292'>0.76954E+02</wgt>
<wgt id='3293'>0.77865E+02</wgt>
<wgt id='3294'>0.76221E+02</wgt>
<wgt id='3295'>0.77362E+02</wgt>
<wgt id='3296'>0.81241E+02</wgt>
<wgt id='3297'>0.75253E+02</wgt>
<wgt id='3298'>0.78641E+02</wgt>
<wgt id='3299'>0.80189E+02</wgt>
<wgt id='3300'>0.76276E+02</wgt>
<wgt id='3301'>0.76801E+02</wgt>
<wgt id='3302'>0.79274E+02</wgt>
<wgt id='3400'>0.80413E+02</wgt>
<wgt id='3401'>0.79396E+02</wgt>
<wgt id='3402'>0.80109E+02</wgt>
<wgt id='3403'>0.79647E+02</wgt>
<wgt id='3404'>0.79793E+02</wgt>
<wgt id='3405'>0.81013E+02</wgt>
<wgt id='3406'>0.79928E+02</wgt>
<wgt id='3407'>0.78647E+02</wgt>
<wgt id='3408'>0.80480E+02</wgt>
<wgt id='3409'>0.81701E+02</wgt>
<wgt id='3410'>0.79594E+02</wgt>
<wgt id='3411'>0.79493E+02</wgt>
<wgt id='3412'>0.82060E+02</wgt>
<wgt id='3413'>0.80852E+02</wgt>
<wgt id='3414'>0.80260E+02</wgt>
<wgt id='3415'>0.81561E+02</wgt>
<wgt id='3416'>0.78253E+02</wgt>
<wgt id='3417'>0.81469E+02</wgt>
<wgt id='3418'>0.80604E+02</wgt>
<wgt id='3419'>0.80733E+02</wgt>
<wgt id='3420'>0.80219E+02</wgt>
<wgt id='3421'>0.80686E+02</wgt>
<wgt id='3422'>0.81853E+02</wgt>
<wgt id='3423'>0.81169E+02</wgt>
<wgt id='3424'>0.80504E+02</wgt>
<wgt id='3425'>0.81110E+02</wgt>
<wgt id='3426'>0.81870E+02</wgt>
<wgt id='3427'>0.80286E+02</wgt>
<wgt id='3428'>0.80693E+02</wgt>
<wgt id='3429'>0.80177E+02</wgt>
<wgt id='3430'>0.82353E+02</wgt>
<wgt id='3431'>0.79807E+02</wgt>
<wgt id='3432'>0.79965E+02</wgt>
<wgt id='3433'>0.79614E+02</wgt>
<wgt id='3434'>0.79375E+02</wgt>
<wgt id='3435'>0.79972E+02</wgt>
<wgt id='3436'>0.81528E+02</wgt>
<wgt id='3437'>0.79575E+02</wgt>
<wgt id='3438'>0.79277E+02</wgt>
<wgt id='3439'>0.80970E+02</wgt>
<wgt id='3440'>0.79815E+02</wgt>
<wgt id='3441'>0.79278E+02</wgt>
<wgt id='3442'>0.79572E+02</wgt>
<wgt id='3443'>0.79784E+02</wgt>
<wgt id='3444'>0.80846E+02</wgt>
<wgt id='3445'>0.79420E+02</wgt>
<wgt id='3446'>0.81058E+02</wgt>
<wgt id='3447'>0.82719E+02</wgt>
<wgt id='3448'>0.78860E+02</wgt>
<wgt id='3449'>0.79780E+02</wgt>
<wgt id='3450'>0.79280E+02</wgt>
<wgt id='3451'>0.80794E+02</wgt>
<wgt id='3452'>0.79130E+02</wgt>
<wgt id='3453'>0.80316E+02</wgt>
<wgt id='3454'>0.80374E+02</wgt>
<wgt id='3455'>0.81196E+02</wgt>
<wgt id='3456'>0.81674E+02</wgt>
<wgt id='3457'>0.81132E+02</wgt>
<wgt id='3458'>0.80126E+02</wgt>
<wgt id='3459'>0.80612E+02</wgt>
<wgt id='3460'>0.80943E+02</wgt>
<wgt id='3461'>0.79979E+02</wgt>
<wgt id='3462'>0.79688E+02</wgt>
<wgt id='3463'>0.80363E+02</wgt>
<wgt id='3464'>0.80238E+02</wgt>
<wgt id='3465'>0.80899E+02</wgt>
<wgt id='3466'>0.80310E+02</wgt>
<wgt id='3467'>0.80410E+02</wgt>
<wgt id='3468'>0.79468E+02</wgt>
<wgt id='3469'>0.81316E+02</wgt>
<wgt id='3470'>0.81956E+02</wgt>
<wgt id='3471'>0.80821E+02</wgt>
<wgt id='3472'>0.81220E+02</wgt>
<wgt id='3473'>0.81124E+02</wgt>
<wgt id='3474'>0.79458E+02</wgt>
<wgt id='3475'>0.80104E+02</wgt>
<wgt id='3476'>0.81097E+02</wgt>
<wgt id='3477'>0.81288E+02</wgt>
<wgt id='3478'>0.79464E+02</wgt>
<wgt id='3479'>0.81616E+02</wgt>
<wgt id='3480'>0.80964E+02</wgt>
<wgt id='3481'>0.78958E+02</wgt>
<wgt id='3482'>0.79945E+02</wgt>
<wgt id='3483'>0.80476E+02</wgt>
<wgt id='3484'>0.78939E+02</wgt>
<wgt id='3485'>0.81924E+02</wgt>
<wgt id='3486'>0.79774E+02</wgt>
<wgt id='3487'>0.80059E+02</wgt>
<wgt id='3488'>0.81012E+02</wgt>
<wgt id='3489'>0.81236E+02</wgt>
<wgt id='3490'>0.80243E+02</wgt>
<wgt id='3491'>0.79407E+02</wgt>
<wgt id='3492'>0.80716E+02</wgt>
<wgt id='3493'>0.80455E+02</wgt>
<wgt id='3494'>0.79693E+02</wgt>
<wgt id='3495'>0.80335E+02</wgt>
<wgt id='3496'>0.80729E+02</wgt>
<wgt id='3497'>0.80574E+02</wgt>
<wgt id='3498'>0.80696E+02</wgt>
<wgt id='3499'>0.80547E+02</wgt>
<wgt id='3500'>0.80477E+02</wgt>
</rwgt>
</event>
<event>
     13 322200  8.11039E+01  9.34411E+00 -1.00000E+00  1.95035E-01
      -2    -1     0     0     0   512  0.000000000E+00  0.000000000E+00  1.496898466E+01  1.496898466E+01  0.000000000E+00  0.00000E+00  9.000E+00
       2    -1     0     0   503     0  0.000000000E+00  0.000000000E+00 -2.429403712E+03  2.429403712E+03  0.000000000E+00  0.00000E+00  9.000E+00
       6     2     1     2   502     0  1.456702481E+01  4.827543610E+01 -1.035170448E+03  1.050697845E+03  1.727581811E+02  0.00000E+00  9.000E+00
      -6     2     1     2     0   512 -6.938054688E+00 -4.287995617E+01 -1.365921933E+03  1.377385880E+03  1.719369308E+02  0.00000E+00  9.000E+00
      21     1     1     2   503   502 -7.628970125E+00 -5.395479934E+00 -1.334234588E+01  1.628897119E+01  5.591411304E-07  0.00000E+00  9.000E+00
      24     2     3     3     0     0 -5.389623262E+01 -1.585669497E+00 -5.088169105E+02  5.175496503E+02  7.781821045E+01  0.00000E+00  9.000E+00
       5     1     3     3   502     0  6.846325743E+01  4.986110560E+01 -5.263535379E+02  5.331481951E+02  5.060000000E+00  0.00000E+00 -1.000E+00
     -24     2     4     4     0     0 -3.012164941E+01 -3.520492358E+00 -3.515058359E+02  3.619292004E+02  8.072599225E+01  0.00000E+00  9.000E+00
      -5     1     4     4     0   512  2.318359473E+01 -3.935946381E+01 -1.014416097E+03  1.015456680E+03  5.060000000E+00  0.00000E+00  1.000E+00
     -13     1     6     6     0     0 -2.042617448E+01  2.711809184E+01 -3.775892927E+02  3.791125225E+02  1.057000000E-01  0.00000E+00  1.000E+00
      14     1     6     6     0     0 -3.347005814E+01 -2.870376134E+01 -1.312276178E+02  1.384371279E+02  0.000000000E+00  0.00000E+00 -1.000E+00
      15     1     8     8     0     0 -4.518627987E+00  7.512413022E+00 -3.189171999E+02  3.190426186E+02  1.777000000E+00  0.00000E+00 -1.000E+00
     -16     1     8     8     0     0 -2.560302143E+01 -1.103290538E+01 -3.258863602E+01  4.288658188E+01  0.000000000E+00  0.00000E+00  1.000E+00
#rwgt            1           5   791.53517217560795               10        7521           0
<rwgt>
<wgt id='1001'>0.81104E+02</wgt>
<wgt id='1002'>0.80449E+02</wgt>
<wgt id='1003'>0.81648E+02</wgt>
<wgt id='1004'>0.79788E+02</wgt>
<wgt id='1005'>0.79188E+02</wgt>
<wgt id='1006'>0.80202E+02</wgt>
<wgt id='1007'>0.77795E+02</wgt>
<wgt id='1008'>0.77087E+02</wgt>
<wgt id='1009'>0.78529E+02</wgt>
<wgt id='2000'>0.81104E+02</wgt>
<wgt id='2001'>0.81191E+02</wgt>
<wgt id='2002'>0.80944E+02</wgt>
<wgt id='2003'>0.81297E+02</wgt>
<wgt id='2004'>0.81263E+02</wgt>
<wgt id='2005'>0.81240E+02</wgt>
<wgt id='2006'>0.81049E+02</wgt>
<wgt id='2007'>0.81140E+02</wgt>
<wgt id='2008'>0.80910E+02</wgt>
<wgt id='2009'>0.81308E+02</wgt>
<wgt id='2010'>0.81035E+02</wgt>
<wgt id='2011'>0.81113E+02</wgt>
<wgt id='2012'>0.81045E+02</wgt>
<wgt id='2013'>0.81249E+02</wgt>
<wgt id='2014'>0.81182E+02</wgt>
<wgt id='2015'>0.81233E+02</wgt>
<wgt id='2016'>0.80886E+02</wgt>
<wgt id='2017'>0.81169E+02</wgt>
<wgt id='2018'>0.80767E+02</wgt>
<wgt id='2019'>0.80887E+02</wgt>
<wgt id='2020'>0.80802E+02</wgt>
<wgt id='2021'>0.81174E+02</wgt>
<wgt id='2022'>0.81349E+02</wgt>
<wgt id='2023'>0.80832E+02</wgt>
<wgt id='2024'>0.81057E+02</wgt>
<wgt id='2025'>0.81209E+02</wgt>
<wgt id='2026'>0.81090E+02</wgt>
<wgt id='2027'>0.80895E+02</wgt>
<wgt id='2028'>0.81391E+02</wgt>
<wgt id='2029'>0.81739E+02</wgt>
<wgt id='2030'>0.81125E+02</wgt>
<wgt id='2031'>0.81711E+02</wgt>
<wgt id='2032'>0.81334E+02</wgt>
<wgt id='2033'>0.80974E+02</wgt>
<wgt id='2034'>0.81247E+02</wgt>
<wgt id='2035'>0.80993E+02</wgt>
<wgt id='2036'>0.80686E+02</wgt>
<wgt id='2037'>0.81474E+02</wgt>
<wgt id='2038'>0.81048E+02</wgt>
<wgt id='2039'>0.81081E+02</wgt>
<wgt id='2040'>0.81170E+02</wgt>
<wgt id='2041'>0.80989E+02</wgt>
<wgt id='2042'>0.81006E+02</wgt>
<wgt id='2043'>0.80904E+02</wgt>
<wgt id='2044'>0.81086E+02</wgt>
<wgt id='2045'>0.81094E+02</wgt>
<wgt id='2046'>0.81116E+02</wgt>
<wgt id='2047'>0.80978E+02</wgt>
<wgt id='2048'>0.81219E+02</wgt>
<wgt id='2049'>0.81183E+02</wgt>
<wgt id='2050'>0.81093E+02</wgt>
<wgt id='2051'>0.81075E+02</wgt>
<wgt id='2052'>0.81256E+02</wgt>
<wgt id='2053'>0.81066E+02</wgt>
<wgt id='2054'>0.81010E+02</wgt>
<wgt id='2055'>0.81166E+02</wgt>
<wgt id='2056'>0.81258E+02</wgt>
<wgt id='2057'>0.80954E+02</wgt>
<wgt id='2058'>0.81081E+02</wgt>
<wgt id='2059'>0.80956E+02</wgt>
<wgt id='2060'>0.80945E+02</wgt>
<wgt id='2061'>0.81259E+02</wgt>
<wgt id='2062'>0.81180E+02</wgt>
<wgt id='2063'>0.81162E+02</wgt>
<wgt id='2064'>0.81218E+02</wgt>
<wgt id='2065'>0.80936E+02</wgt>
<wgt id='2066'>0.80971E+02</wgt>
<wgt id='2067'>0.81290E+02</wgt>
<wgt id='2068'>0.81231E+02</wgt>
<wgt id='2069'>0.81134E+02</wgt>
<wgt id='2070'>0.81186E+02</wgt>
<wgt id='2071'>0.81295E+02</wgt>
<wgt id='2072'>0.81074E+02</wgt>
<wgt id='2073'>0.81108E+02</wgt>
<wgt id='2074'>0.81281E+02</wgt>
<wgt id='2075'>0.81183E+02</wgt>
<wgt id='2076'>0.81102E+02</wgt>
<wgt id='2077'>0.81044E+02</wgt>
<wgt id='2078'>0.81191E+02</wgt>
<wgt id='2079'>0.81058E+02</wgt>
<wgt id='2080'>0.81155E+02</wgt>
<wgt id='2081'>0.81085E+02</wgt>
<wgt id='2082'>0.81156E+02</wgt>
<wgt id='2083'>0.81073E+02</wgt>
<wgt id='2084'>0.81164E+02</wgt>
<wgt id='2085'>0.81133E+02</wgt>
<wgt id='2086'>0.81027E+02</wgt>
<wgt id='2087'>0.81055E+02</wgt>
<wgt id='2088'>0.81103E+02</wgt>
<wgt id='2089'>0.81025E+02</wgt>
<wgt id='2090'>0.81158E+02</wgt>
<wgt id='2091'>0.81106E+02</wgt>
<wgt id='2092'>0.81156E+02</wgt>
<wgt id='2093'>0.81050E+02</wgt>
<wgt id='2094'>0.81134E+02</wgt>
<wgt id='2095'>0.81105E+02</wgt>
<wgt id='2096'>0.81081E+02</wgt>
<wgt id='2097'>0.81076E+02</wgt>
<wgt id='2098'>0.81066E+02</wgt>
<wgt id='2099'>0.81119E+02</wgt>
<wgt id='2100'>0.81104E+02</wgt>
<wgt id='2101'>0.78585E+02</wgt>
<wgt id='2102'>0.83601E+02</wgt>
<wgt id='2200'>0.81120E+02</wgt>
<wgt id='2201'>0.68697E+02</wgt>
<wgt id='2202'>0.70818E+02</wgt>
<wgt id='2203'>0.73579E+02</wgt>
<wgt id='2204'>0.76299E+02</wgt>
<wgt id='2205'>0.80052E+02</wgt>
<wgt id='2206'>0.82430E+02</wgt>
<wgt id='2207'>0.86037E+02</wgt>
<wgt id='2208'>0.88357E+02</wgt>
<wgt id='2300'>0.80889E+02</wgt>
<wgt id='2301'>0.81128E+02</wgt>
<wgt id='2302'>0.80639E+02</wgt>
<wgt id='2303'>0.81039E+02</wgt>
<wgt id='2304'>0.80827E+02</wgt>
<wgt id='2305'>0.80985E+02</wgt>
<wgt id='2306'>0.81013E+02</wgt>
<wgt id='2307'>0.80933E+02</wgt>
<wgt id='2308'>0.80683E+02</wgt>
<wgt id='2309'>0.80952E+02</wgt>
<wgt id='2310'>0.80753E+02</wgt>
<wgt id='2311'>0.80878E+02</wgt>
<wgt id='2312'>0.80742E+02</wgt>
<wgt id='2313'>0.80849E+02</wgt>
<wgt id='2314'>0.81215E+02</wgt>
<wgt id='2315'>0.80573E+02</wgt>
<wgt id='2316'>0.80848E+02</wgt>
<wgt id='2317'>0.80861E+02</wgt>
<wgt id='2318'>0.80850E+02</wgt>
<wgt id='2319'>0.80852E+02</wgt>
<wgt id='2320'>0.80514E+02</wgt>
<wgt id='2321'>0.81078E+02</wgt>
<wgt id='2322'>0.81030E+02</wgt>
<wgt id='2323'>0.81210E+02</wgt>
<wgt id='2324'>0.80807E+02</wgt>
<wgt id='2325'>0.80545E+02</wgt>
<wgt id='2326'>0.80806E+02</wgt>
<wgt id='2327'>0.80972E+02</wgt>
<wgt id='2328'>0.81079E+02</wgt>
<wgt id='2329'>0.81410E+02</wgt>
<wgt id='2330'>0.79985E+02</wgt>
<wgt id='2331'>0.80602E+02</wgt>
<wgt id='2332'>0.80855E+02</wgt>
<wgt id='2333'>0.81030E+02</wgt>
<wgt id='2334'>0.81051E+02</wgt>
<wgt id='2335'>0.81050E+02</wgt>
<wgt id='2336'>0.81027E+02</wgt>
<wgt id='2337'>0.80744E+02</wgt>
<wgt id='2338'>0.80920E+02</wgt>
<wgt id='2339'>0.80834E+02</wgt>
<wgt id='2340'>0.80838E+02</wgt>
<wgt id='2341'>0.80898E+02</wgt>
<wgt id='2342'>0.80972E+02</wgt>
<wgt id='2343'>0.80625E+02</wgt>
<wgt id='2344'>0.80941E+02</wgt>
<wgt id='2345'>0.81050E+02</wgt>
<wgt id='2346'>0.80849E+02</wgt>
<wgt id='2347'>0.80691E+02</wgt>
<wgt id='2348'>0.80909E+02</wgt>
<wgt id='2349'>0.81009E+02</wgt>
<wgt id='2350'>0.80753E+02</wgt>
<wgt id='2351'>0.81190E+02</wgt>
<wgt id='2352'>0.81040E+02</wgt>
<wgt id='2353'>0.80953E+02</wgt>
<wgt id='2354'>0.81038E+02</wgt>
<wgt id='2355'>0.80654E+02</wgt>
<wgt id='2356'>0.81240E+02</wgt>
<wgt id='2357'>0.80722E+02</wgt>
<wgt id='2358'>0.80933E+02</wgt>
<wgt id='2359'>0.81206E+02</wgt>
<wgt id='2360'>0.80864E+02</wgt>
<wgt id='2361'>0.80771E+02</wgt>
<wgt id='2362'>0.80853E+02</wgt>
<wgt id='2363'>0.80799E+02</wgt>
<wgt id='2364'>0.80776E+02</wgt>
<wgt id='2365'>0.80920E+02</wgt>
<wgt id='2366'>0.80880E+02</wgt>
<wgt id='2367'>0.81041E+02</wgt>
<wgt id='2368'>0.80877E+02</wgt>
<wgt id='2369'>0.80797E+02</wgt>
<wgt id='2370'>0.80899E+02</wgt>
<wgt id='2371'>0.80803E+02</wgt>
<wgt id='2372'>0.80880E+02</wgt>
<wgt id='2373'>0.80785E+02</wgt>
<wgt id='2374'>0.80761E+02</wgt>
<wgt id='2375'>0.80907E+02</wgt>
<wgt id='2376'>0.80841E+02</wgt>
<wgt id='2377'>0.81082E+02</wgt>
<wgt id='2378'>0.80956E+02</wgt>
<wgt id='2379'>0.80700E+02</wgt>
<wgt id='2380'>0.80705E+02</wgt>
<wgt id='2381'>0.80750E+02</wgt>
<wgt id='2382'>0.80802E+02</wgt>
<wgt id='2383'>0.80725E+02</wgt>
<wgt id='2384'>0.80893E+02</wgt>
<wgt id='2385'>0.80822E+02</wgt>
<wgt id='2386'>0.80893E+02</wgt>
<wgt id='2387'>0.80898E+02</wgt>
<wgt id='2388'>0.80878E+02</wgt>
<wgt id='2389'>0.80809E+02</wgt>
<wgt id='2390'>0.80779E+02</wgt>
<wgt id='2391'>0.80851E+02</wgt>
<wgt id='2392'>0.80889E+02</wgt>
<wgt id='2393'>0.80849E+02</wgt>
<wgt id='2394'>0.80957E+02</wgt>
<wgt id='2395'>0.80847E+02</wgt>
<wgt id='2396'>0.80887E+02</wgt>
<wgt id='2397'>0.80909E+02</wgt>
<wgt id='2398'>0.80887E+02</wgt>
<wgt id='2399'>0.80742E+02</wgt>
<wgt id='2400'>0.80860E+02</wgt>
<wgt id='2401'>0.78460E+02</wgt>
<wgt id='2402'>0.83639E+02</wgt>
<wgt id='2500'>0.80445E+02</wgt>
<wgt id='2501'>0.79599E+02</wgt>
<wgt id='2600'>0.80274E+02</wgt>
<wgt id='2601'>0.80060E+02</wgt>
<wgt id='2602'>0.80406E+02</wgt>
<wgt id='2603'>0.80272E+02</wgt>
<wgt id='2604'>0.80360E+02</wgt>
<wgt id='2605'>0.80346E+02</wgt>
<wgt id='2606'>0.80035E+02</wgt>
<wgt id='2607'>0.80217E+02</wgt>
<wgt id='2608'>0.80317E+02</wgt>
<wgt id='2609'>0.80167E+02</wgt>
<wgt id='2610'>0.80141E+02</wgt>
<wgt id='2611'>0.80216E+02</wgt>
<wgt id='2612'>0.80257E+02</wgt>
<wgt id='2613'>0.79992E+02</wgt>
<wgt id='2614'>0.80166E+02</wgt>
<wgt id='2615'>0.80213E+02</wgt>
<wgt id='2616'>0.79967E+02</wgt>
<wgt id='2617'>0.80516E+02</wgt>
<wgt id='2618'>0.80212E+02</wgt>
<wgt id='2619'>0.79824E+02</wgt>
<wgt id='2620'>0.80387E+02</wgt>
<wgt id='2621'>0.80375E+02</wgt>
<wgt id='2622'>0.80196E+02</wgt>
<wgt id='2623'>0.80226E+02</wgt>
<wgt id='2624'>0.80416E+02</wgt>
<wgt id='2625'>0.79942E+02</wgt>
<wgt id='2626'>0.80412E+02</wgt>
<wgt id='2627'>0.80408E+02</wgt>
<wgt id='2628'>0.80381E+02</wgt>
<wgt id='2629'>0.80388E+02</wgt>
<wgt id='2630'>0.80451E+02</wgt>
<wgt id='2631'>0.80236E+02</wgt>
<wgt id='2632'>0.80376E+02</wgt>
<wgt id='2633'>0.80445E+02</wgt>
<wgt id='2634'>0.80303E+02</wgt>
<wgt id='2635'>0.80184E+02</wgt>
<wgt id='2636'>0.80391E+02</wgt>
<wgt id='2637'>0.80373E+02</wgt>
<wgt id='2638'>0.80305E+02</wgt>
<wgt id='2639'>0.80249E+02</wgt>
<wgt id='2640'>0.80208E+02</wgt>
<wgt id='2641'>0.80223E+02</wgt>
<wgt id='2642'>0.80197E+02</wgt>
<wgt id='2643'>0.80439E+02</wgt>
<wgt id='2644'>0.80293E+02</wgt>
<wgt id='2645'>0.80259E+02</wgt>
<wgt id='2646'>0.80368E+02</wgt>
<wgt id='2647'>0.80256E+02</wgt>
<wgt id='2648'>0.80336E+02</wgt>
<wgt id='2649'>0.80213E+02</wgt>
<wgt id='2650'>0.80323E+02</wgt>
<wgt id='2651'>0.79348E+02</wgt>
<wgt id='2652'>0.81112E+02</wgt>
<wgt id='2700'>0.78318E+02</wgt>
<wgt id='2701'>0.79348E+02</wgt>
<wgt id='2702'>0.79868E+02</wgt>
<wgt id='2703'>0.80663E+02</wgt>
<wgt id='2704'>0.81112E+02</wgt>
<wgt id='2705'>0.82305E+02</wgt>
<wgt id='2800'>0.84417E+02</wgt>
<wgt id='4000'>0.81124E+02</wgt>
<wgt id='4001'>0.80885E+02</wgt>
<wgt id='4002'>0.81618E+02</wgt>
<wgt id='4003'>0.82615E+02</wgt>
<wgt id='4004'>0.79108E+02</wgt>
<wgt id='4005'>0.80512E+02</wgt>
<wgt id='4006'>0.81166E+02</wgt>
<wgt id='4007'>0.79897E+02</wgt>
<wgt id='4008'>0.82160E+02</wgt>
<wgt id='4009'>0.80420E+02</wgt>
<wgt id='4010'>0.81817E+02</wgt>
<wgt id='4011'>0.81461E+02</wgt>
<wgt id='4012'>0.80970E+02</wgt>
<wgt id='4013'>0.80403E+02</wgt>
<wgt id='4014'>0.81388E+02</wgt>
<wgt id='4015'>0.80630E+02</wgt>
<wgt id='4016'>0.81078E+02</wgt>
<wgt id='4017'>0.80909E+02</wgt>
<wgt id='4018'>0.81183E+02</wgt>
<wgt id='4019'>0.81601E+02</wgt>
<wgt id='4020'>0.80040E+02</wgt>
<wgt id='4021'>0.81258E+02</wgt>
<wgt id='4022'>0.80916E+02</wgt>
<wgt id='4023'>0.81159E+02</wgt>
<wgt id='4024'>0.80469E+02</wgt>
<wgt id='4025'>0.80990E+02</wgt>
<wgt id='4026'>0.81511E+02</wgt>
<wgt id='4027'>0.81513E+02</wgt>
<wgt id='4028'>0.80715E+02</wgt>
<wgt id='4029'>0.81343E+02</wgt>
<wgt id='4030'>0.80616E+02</wgt>
<wgt id='4031'>0.81264E+02</wgt>
<wgt id='4032'>0.80138E+02</wgt>
<wgt id='4033'>0.80136E+02</wgt>
<wgt id='4034'>0.82061E+02</wgt>
<wgt id='4035'>0.81631E+02</wgt>
<wgt id='4036'>0.80940E+02</wgt>
<wgt id='4037'>0.81554E+02</wgt>
<wgt id='4038'>0.80348E+02</wgt>
<wgt id='4039'>0.82241E+02</wgt>
<wgt id='4040'>0.79830E+02</wgt>
<wgt id='4041'>0.81602E+02</wgt>
<wgt id='4042'>0.80717E+02</wgt>
<wgt id='4043'>0.79896E+02</wgt>
<wgt id='4044'>0.82560E+02</wgt>
<wgt id='4045'>0.81664E+02</wgt>
<wgt id='4046'>0.80815E+02</wgt>
<wgt id='4047'>0.82145E+02</wgt>
<wgt id='4048'>0.80112E+02</wgt>
<wgt id='4049'>0.80324E+02</wgt>
<wgt id='4050'>0.81913E+02</wgt>
<wgt id='4051'>0.82672E+02</wgt>
<wgt id='4052'>0.79403E+02</wgt>
<wgt id='4053'>0.80831E+02</wgt>
<wgt id='4054'>0.81838E+02</wgt>
<wgt id='4055'>0.81579E+02</wgt>
<wgt id='4056'>0.81284E+02</wgt>
<wgt id='4057'>0.81323E+02</wgt>
<wgt id='4058'>0.80969E+02</wgt>
<wgt id='4100'>0.81695E+02</wgt>
<wgt id='4101'>0.81419E+02</wgt>
<wgt id='4102'>0.80825E+02</wgt>
<wgt id='4103'>0.80523E+02</wgt>
<wgt id='4200'>0.81211E+02</wgt>
<wgt id='4201'>0.81566E+02</wgt>
<wgt id='4202'>0.80853E+02</wgt>
<wgt id='4203'>0.82459E+02</wgt>
<wgt id='4204'>0.80021E+02</wgt>
<wgt id='4205'>0.81632E+02</wgt>
<wgt id='4206'>0.80713E+02</wgt>
<wgt id='4207'>0.80784E+02</wgt>
<wgt id='4208'>0.81056E+02</wgt>
<wgt id='4209'>0.81375E+02</wgt>
<wgt id='4210'>0.80893E+02</wgt>
<wgt id='4211'>0.80962E+02</wgt>
<wgt id='4212'>0.81299E+02</wgt>
<wgt id='4213'>0.81765E+02</wgt>
<wgt id='4214'>0.80205E+02</wgt>
<wgt id='4215'>0.81024E+02</wgt>
<wgt id='4216'>0.81471E+02</wgt>
<wgt id='4217'>0.81435E+02</wgt>
<wgt id='4218'>0.81093E+02</wgt>
<wgt id='4219'>0.81426E+02</wgt>
<wgt id='4220'>0.81192E+02</wgt>
<wgt id='4221'>0.80687E+02</wgt>
<wgt id='4222'>0.81919E+02</wgt>
<wgt id='4223'>0.81405E+02</wgt>
<wgt id='4224'>0.81567E+02</wgt>
<wgt id='4225'>0.80939E+02</wgt>
<wgt id='4226'>0.81114E+02</wgt>
<wgt id='4227'>0.81612E+02</wgt>
<wgt id='4228'>0.80921E+02</wgt>
<wgt id='4229'>0.81995E+02</wgt>
<wgt id='4230'>0.80303E+02</wgt>
<wgt id='4231'>0.81904E+02</wgt>
<wgt id='4232'>0.80180E+02</wgt>
<wgt id='4233'>0.81014E+02</wgt>
<wgt id='4234'>0.81614E+02</wgt>
<wgt id='4235'>0.81115E+02</wgt>
<wgt id='4236'>0.81335E+02</wgt>
<wgt id='4237'>0.82126E+02</wgt>
<wgt id='4238'>0.80710E+02</wgt>
<wgt id='4239'>0.81830E+02</wgt>
<wgt id='4240'>0.81088E+02</wgt>
<wgt id='4241'>0.82236E+02</wgt>
<wgt id='4242'>0.80245E+02</wgt>
<wgt id='4243'>0.81106E+02</wgt>
<wgt id='4244'>0.81266E+02</wgt>
<wgt id='4245'>0.79655E+02</wgt>
<wgt id='4246'>0.82903E+02</wgt>
<wgt id='4247'>0.81385E+02</wgt>
<wgt id='4248'>0.81296E+02</wgt>
<wgt id='4249'>0.81892E+02</wgt>
<wgt id='4250'>0.80573E+02</wgt>
<wgt id='4251'>0.80439E+02</wgt>
<wgt id='4252'>0.81705E+02</wgt>
<wgt id='4253'>0.80495E+02</wgt>
<wgt id='4254'>0.82214E+02</wgt>
<wgt id='4255'>0.81475E+02</wgt>
<wgt id='4256'>0.80822E+02</wgt>
<wgt id='4257'>0.80962E+02</wgt>
<wgt id='4258'>0.81257E+02</wgt>
<wgt id='4300'>0.79679E+02</wgt>
<wgt id='4301'>0.81462E+02</wgt>
<wgt id='5000'>0.79188E+02</wgt>
<wgt id='5001'>0.79389E+02</wgt>
<wgt id='5002'>0.78929E+02</wgt>
<wgt id='5003'>0.78997E+02</wgt>
<wgt id='5004'>0.79362E+02</wgt>
<wgt id='5005'>0.79068E+02</wgt>
<wgt id='5006'>0.79384E+02</wgt>
<wgt id='5007'>0.79276E+02</wgt>
<wgt id='5008'>0.79116E+02</wgt>
<wgt id='5009'>0.79042E+02</wgt>
<wgt id='5010'>0.79338E+02</wgt>
<wgt id='5011'>0.79008E+02</wgt>
<wgt id='5012'>0.79362E+02</wgt>
<wgt id='5013'>0.79685E+02</wgt>
<wgt id='5014'>0.78834E+02</wgt>
<wgt id='5015'>0.79601E+02</wgt>
<wgt id='5016'>0.79601E+02</wgt>
<wgt id='5017'>0.78536E+02</wgt>
<wgt id='5018'>0.79633E+02</wgt>
<wgt id='5019'>0.78939E+02</wgt>
<wgt id='5020'>0.79533E+02</wgt>
<wgt id='5021'>0.79218E+02</wgt>
<wgt id='5022'>0.79087E+02</wgt>
<wgt id='5023'>0.79138E+02</wgt>
<wgt id='5024'>0.79307E+02</wgt>
<wgt id='5025'>0.79150E+02</wgt>
<wgt id='5026'>0.79229E+02</wgt>
<wgt id='5027'>0.79097E+02</wgt>
<wgt id='5028'>0.79431E+02</wgt>
<wgt id='5029'>0.78674E+02</wgt>
<wgt id='5030'>0.79458E+02</wgt>
<wgt id='5031'>0.79305E+02</wgt>
<wgt id='5032'>0.78766E+02</wgt>
<wgt id='5033'>0.79420E+02</wgt>
<wgt id='5034'>0.78934E+02</wgt>
<wgt id='5035'>0.79443E+02</wgt>
<wgt id='5036'>0.78846E+02</wgt>
<wgt id='5037'>0.79582E+02</wgt>
<wgt id='5038'>0.78967E+02</wgt>
<wgt id='5039'>0.79206E+02</wgt>
<wgt id='5040'>0.79153E+02</wgt>
<wgt id='5041'>0.79319E+02</wgt>
<wgt id='5042'>0.79018E+02</wgt>
<wgt id='5043'>0.78282E+02</wgt>
<wgt id='5044'>0.80036E+02</wgt>
<wgt id='5045'>0.79014E+02</wgt>
<wgt id='5046'>0.79417E+02</wgt>
<wgt id='5047'>0.79149E+02</wgt>
<wgt id='5048'>0.79438E+02</wgt>
<wgt id='5049'>0.79348E+02</wgt>
<wgt id='5050'>0.78953E+02</wgt>
<wgt id='5051'>0.79309E+02</wgt>
<wgt id='5052'>0.79074E+02</wgt>
<wgt id='5053'>0.78811E+02</wgt>
<wgt id='5054'>0.79438E+02</wgt>
<wgt id='5055'>0.79284E+02</wgt>
<wgt id='5056'>0.78885E+02</wgt>
<wgt id='5057'>0.79063E+02</wgt>
<wgt id='5058'>0.79259E+02</wgt>
<wgt id='5059'>0.79132E+02</wgt>
<wgt id='5060'>0.79218E+02</wgt>
<wgt id='5061'>0.79154E+02</wgt>
<wgt id='5062'>0.79102E+02</wgt>
<wgt id='5063'>0.79520E+02</wgt>
<wgt id='5064'>0.79366E+02</wgt>
<wgt id='5100'>0.79188E+02</wgt>
<wgt id='5101'>0.79236E+02</wgt>
<wgt id='6000'>0.79811E+02</wgt>
<wgt id='6001'>0.79852E+02</wgt>
<wgt id='6002'>0.78621E+02</wgt>
<wgt id='6003'>0.79673E+02</wgt>
<wgt id='6004'>0.79713E+02</wgt>
<wgt id='6005'>0.79828E+02</wgt>
<wgt id='6006'>0.78744E+02</wgt>
<wgt id='6007'>0.79837E+02</wgt>
<wgt id='6008'>0.79128E+02</wgt>
<wgt id='6009'>0.80054E+02</wgt>
<wgt id='6010'>0.79709E+02</wgt>
<wgt id='6011'>0.79763E+02</wgt>
<wgt id='6012'>0.79929E+02</wgt>
<wgt id='6013'>0.79575E+02</wgt>
<wgt id='6014'>0.79981E+02</wgt>
<wgt id='6015'>0.80167E+02</wgt>
<wgt id='6016'>0.80011E+02</wgt>
<wgt id='6017'>0.79805E+02</wgt>
<wgt id='6018'>0.80040E+02</wgt>
<wgt id='6019'>0.79915E+02</wgt>
<wgt id='6020'>0.79848E+02</wgt>
<wgt id='6021'>0.79793E+02</wgt>
<wgt id='6022'>0.79742E+02</wgt>
<wgt id='6023'>0.79802E+02</wgt>
<wgt id='6024'>0.79782E+02</wgt>
<wgt id='6025'>0.79354E+02</wgt>
<wgt id='6026'>0.79889E+02</wgt>
<wgt id='6027'>0.79769E+02</wgt>
<wgt id='6028'>0.79791E+02</wgt>
<wgt id='6029'>0.79818E+02</wgt>
<wgt id='6030'>0.79974E+02</wgt>
<wgt id='6031'>0.79743E+02</wgt>
<wgt id='6032'>0.79850E+02</wgt>
<wgt id='6033'>0.79883E+02</wgt>
<wgt id='6034'>0.79855E+02</wgt>
<wgt id='6035'>0.80025E+02</wgt>
<wgt id='6036'>0.79808E+02</wgt>
<wgt id='6037'>0.79817E+02</wgt>
<wgt id='6038'>0.79774E+02</wgt>
<wgt id='6039'>0.79770E+02</wgt>
<wgt id='6040'>0.79713E+02</wgt>
<wgt id='6041'>0.78862E+02</wgt>
<wgt id='6042'>0.81166E+02</wgt>
<wgt id='7000'>0.91605E+02</wgt>
<wgt id='7001'>0.91660E+02</wgt>
<wgt id='7002'>0.91484E+02</wgt>
<wgt id='7003'>0.91569E+02</wgt>
<wgt id='7004'>0.91575E+02</wgt>
<wgt id='7005'>0.91254E+02</wgt>
<wgt id='7006'>0.91890E+02</wgt>
<wgt id='7007'>0.91316E+02</wgt>
<wgt id='7008'>0.91818E+02</wgt>
<wgt id='7009'>0.92238E+02</wgt>
<wgt id='7010'>0.90904E+02</wgt>
<wgt id='7011'>0.92064E+02</wgt>
<wgt id='7012'>0.91080E+02</wgt>
<wgt id='7013'>0.91776E+02</wgt>
<wgt id='7014'>0.91371E+02</wgt>
<wgt id='7015'>0.91607E+02</wgt>
<wgt id='7016'>0.91642E+02</wgt>
<wgt id='7017'>0.91492E+02</wgt>
<wgt id='7018'>0.91637E+02</wgt>
<wgt id='7019'>0.91324E+02</wgt>
<wgt id='7020'>0.91815E+02</wgt>
<wgt id='7021'>0.90991E+02</wgt>
<wgt id='7022'>0.92108E+02</wgt>
<wgt id='7023'>0.91244E+02</wgt>
<wgt id='7024'>0.91554E+02</wgt>
<wgt id='7025'>0.91543E+02</wgt>
<wgt id='7026'>0.91201E+02</wgt>
<wgt id='7027'>0.91250E+02</wgt>
<wgt id='7028'>0.91849E+02</wgt>
<wgt id='8000'>0.84237E+02</wgt>
<wgt id='8001'>0.84223E+02</wgt>
<wgt id='8002'>0.84144E+02</wgt>
<wgt id='8003'>0.84298E+02</wgt>
<wgt id='8004'>0.84236E+02</wgt>
<wgt id='8005'>0.84184E+02</wgt>
<wgt id='8006'>0.84136E+02</wgt>
<wgt id='8007'>0.84288E+02</wgt>
<wgt id='8008'>0.83799E+02</wgt>
<wgt id='8009'>0.84088E+02</wgt>
<wgt id='8010'>0.84185E+02</wgt>
<wgt id='8011'>0.84180E+02</wgt>
<wgt id='8012'>0.84333E+02</wgt>
<wgt id='8013'>0.84308E+02</wgt>
<wgt id='8014'>0.84066E+02</wgt>
<wgt id='8015'>0.84214E+02</wgt>
<wgt id='8016'>0.84112E+02</wgt>
<wgt id='8017'>0.84101E+02</wgt>
<wgt id='8018'>0.84042E+02</wgt>
<wgt id='8019'>0.84224E+02</wgt>
<wgt id='8020'>0.83798E+02</wgt>
<wgt id='8021'>0.84018E+02</wgt>
<wgt id='8022'>0.84138E+02</wgt>
<wgt id='8023'>0.84120E+02</wgt>
<wgt id='8024'>0.84390E+02</wgt>
<wgt id='8025'>0.84362E+02</wgt>
<wgt id='8026'>0.84050E+02</wgt>
<wgt id='8027'>0.83973E+02</wgt>
<wgt id='8028'>0.84414E+02</wgt>
<wgt id='8029'>0.83755E+02</wgt>
<wgt id='3000'>0.81104E+02</wgt>
<wgt id='3001'>0.83409E+02</wgt>
<wgt id='3002'>0.80041E+02</wgt>
<wgt id='3003'>0.81333E+02</wgt>
<wgt id='3004'>0.78896E+02</wgt>
<wgt id='3005'>0.80648E+02</wgt>
<wgt id='3006'>0.81302E+02</wgt>
<wgt id='3007'>0.80023E+02</wgt>
<wgt id='3008'>0.81382E+02</wgt>
<wgt id='3009'>0.80722E+02</wgt>
<wgt id='3010'>0.77035E+02</wgt>
<wgt id='3011'>0.81546E+02</wgt>
<wgt id='3012'>0.80546E+02</wgt>
<wgt id='3013'>0.79307E+02</wgt>
<wgt id='3014'>0.82869E+02</wgt>
<wgt id='3015'>0.81352E+02</wgt>
<wgt id='3016'>0.81571E+02</wgt>
<wgt id='3017'>0.83349E+02</wgt>
<wgt id='3018'>0.80739E+02</wgt>
<wgt id='3019'>0.81277E+02</wgt>
<wgt id='3020'>0.79603E+02</wgt>
<wgt id='3021'>0.81932E+02</wgt>
<wgt id='3022'>0.83345E+02</wgt>
<wgt id='3023'>0.82854E+02</wgt>
<wgt id='3024'>0.80078E+02</wgt>
<wgt id='3025'>0.83529E+02</wgt>
<wgt id='3026'>0.83874E+02</wgt>
<wgt id='3027'>0.80974E+02</wgt>
<wgt id='3028'>0.81545E+02</wgt>
<wgt id='3029'>0.80948E+02</wgt>
<wgt id='3030'>0.80485E+02</wgt>
<wgt id='3031'>0.83541E+02</wgt>
<wgt id='3032'>0.79757E+02</wgt>
<wgt id='3033'>0.82573E+02</wgt>
<wgt id='3034'>0.81157E+02</wgt>
<wgt id='3035'>0.80241E+02</wgt>
<wgt id='3036'>0.82527E+02</wgt>
<wgt id='3037'>0.79863E+02</wgt>
<wgt id='3038'>0.79824E+02</wgt>
<wgt id='3039'>0.76348E+02</wgt>
<wgt id='3040'>0.81591E+02</wgt>
<wgt id='3041'>0.82199E+02</wgt>
<wgt id='3042'>0.80481E+02</wgt>
<wgt id='3043'>0.80890E+02</wgt>
<wgt id='3044'>0.80830E+02</wgt>
<wgt id='3045'>0.79757E+02</wgt>
<wgt id='3046'>0.81110E+02</wgt>
<wgt id='3047'>0.83137E+02</wgt>
<wgt id='3048'>0.82906E+02</wgt>
<wgt id='3049'>0.81937E+02</wgt>
<wgt id='3050'>0.81306E+02</wgt>
<wgt id='3051'>0.79408E+02</wgt>
<wgt id='3052'>0.81589E+02</wgt>
<wgt id='3053'>0.80911E+02</wgt>
<wgt id='3054'>0.82619E+02</wgt>
<wgt id='3055'>0.84379E+02</wgt>
<wgt id='3056'>0.78907E+02</wgt>
<wgt id='3057'>0.82488E+02</wgt>
<wgt id='3058'>0.81882E+02</wgt>
<wgt id='3059'>0.82243E+02</wgt>
<wgt id='3060'>0.84960E+02</wgt>
<wgt id='3061'>0.80138E+02</wgt>
<wgt id='3062'>0.81904E+02</wgt>
<wgt id='3063'>0.80617E+02</wgt>
<wgt id='3064'>0.82119E+02</wgt>
<wgt id='3065'>0.83790E+02</wgt>
<wgt id='3066'>0.80443E+02</wgt>
<wgt id='3067'>0.81298E+02</wgt>
<wgt id='3068'>0.80416E+02</wgt>
<wgt id='3069'>0.80469E+02</wgt>
<wgt id='3070'>0.80434E+02</wgt>
<wgt id='3071'>0.80178E+02</wgt>
<wgt id='3072'>0.76430E+02</wgt>
<wgt id='3073'>0.79252E+02</wgt>
<wgt id='3074'>0.80181E+02</wgt>
<wgt id='3075'>0.79521E+02</wgt>
<wgt id='3076'>0.84081E+02</wgt>
<wgt id='3077'>0.78069E+02</wgt>
<wgt id='3078'>0.83431E+02</wgt>
<wgt id='3079'>0.81631E+02</wgt>
<wgt id='3080'>0.78813E+02</wgt>
<wgt id='3081'>0.81202E+02</wgt>
<wgt id='3082'>0.81571E+02</wgt>
<wgt id='3083'>0.81376E+02</wgt>
<wgt id='3084'>0.80828E+02</wgt>
<wgt id='3085'>0.81775E+02</wgt>
<wgt id='3086'>0.79912E+02</wgt>
<wgt id='3087'>0.81558E+02</wgt>
<wgt id='3088'>0.80383E+02</wgt>
<wgt id='3089'>0.78041E+02</wgt>
<wgt id='3090'>0.82226E+02</wgt>
<wgt id='3091'>0.82667E+02</wgt>
<wgt id='3092'>0.81539E+02</wgt>
<wgt id='3093'>0.80547E+02</wgt>
<wgt id='3094'>0.80726E+02</wgt>
<wgt id='3095'>0.79199E+02</wgt>
<wgt id='3096'>0.81856E+02</wgt>
<wgt id='3097'>0.81037E+02</wgt>
<wgt id='3098'>0.80641E+02</wgt>
<wgt id='3099'>0.81654E+02</wgt>
<wgt id='3100'>0.80445E+02</wgt>
<wgt id='3200'>0.80242E+02</wgt>
<wgt id='3201'>0.79540E+02</wgt>
<wgt id='3202'>0.80806E+02</wgt>
<wgt id='3203'>0.81795E+02</wgt>
<wgt id='3204'>0.79014E+02</wgt>
<wgt id='3205'>0.79853E+02</wgt>
<wgt id='3206'>0.80586E+02</wgt>
<wgt id='3207'>0.79431E+02</wgt>
<wgt id='3208'>0.81631E+02</wgt>
<wgt id='3209'>0.80152E+02</wgt>
<wgt id='3210'>0.79009E+02</wgt>
<wgt id='3211'>0.80315E+02</wgt>
<wgt id='3212'>0.80878E+02</wgt>
<wgt id='3213'>0.78777E+02</wgt>
<wgt id='3214'>0.80318E+02</wgt>
<wgt id='3215'>0.80066E+02</wgt>
<wgt id='3216'>0.78066E+02</wgt>
<wgt id='3217'>0.80719E+02</wgt>
<wgt id='3218'>0.81587E+02</wgt>
<wgt id='3219'>0.81435E+02</wgt>
<wgt id='3220'>0.80086E+02</wgt>
<wgt id='3221'>0.81844E+02</wgt>
<wgt id='3222'>0.80846E+02</wgt>
<wgt id='3223'>0.80384E+02</wgt>
<wgt id='3224'>0.79614E+02</wgt>
<wgt id='3225'>0.81414E+02</wgt>
<wgt id='3226'>0.80155E+02</wgt>
<wgt id='3227'>0.79215E+02</wgt>
<wgt id='3228'>0.79516E+02</wgt>
<wgt id='3229'>0.80706E+02</wgt>
<wgt id='3230'>0.80259E+02</wgt>
<wgt id='3231'>0.80628E+02</wgt>
<wgt id='3232'>0.79783E+02</wgt>
<wgt id='3233'>0.81069E+02</wgt>
<wgt id='3234'>0.80856E+02</wgt>
<wgt id='3235'>0.80085E+02</wgt>
<wgt id='3236'>0.79604E+02</wgt>
<wgt id='3237'>0.79040E+02</wgt>
<wgt id='3238'>0.77817E+02</wgt>
<wgt id='3239'>0.81949E+02</wgt>
<wgt id='3240'>0.81286E+02</wgt>
<wgt id='3241'>0.80234E+02</wgt>
<wgt id='3242'>0.79029E+02</wgt>
<wgt id='3243'>0.80638E+02</wgt>
<wgt id='3244'>0.78554E+02</wgt>
<wgt id='3245'>0.79344E+02</wgt>
<wgt id='3246'>0.80444E+02</wgt>
<wgt id='3247'>0.79261E+02</wgt>
<wgt id='3248'>0.82120E+02</wgt>
<wgt id='3249'>0.79103E+02</wgt>
<wgt id='3250'>0.81580E+02</wgt>
<wgt id='3251'>0.79863E+02</wgt>
<wgt id='3252'>0.80191E+02</wgt>
<wgt id='3253'>0.82379E+02</wgt>
<wgt id='3254'>0.80792E+02</wgt>
<wgt id='3255'>0.80025E+02</wgt>
<wgt id='3256'>0.78915E+02</wgt>
<wgt id='3257'>0.79475E+02</wgt>
<wgt id='3258'>0.81304E+02</wgt>
<wgt id='3259'>0.78718E+02</wgt>
<wgt id='3260'>0.79438E+02</wgt>
<wgt id='3261'>0.78239E+02</wgt>
<wgt id='3262'>0.81728E+02</wgt>
<wgt id='3263'>0.80688E+02</wgt>
<wgt id='3264'>0.79767E+02</wgt>
<wgt id='3265'>0.77799E+02</wgt>
<wgt id='3266'>0.79040E+02</wgt>
<wgt id='3267'>0.81755E+02</wgt>
<wgt id='3268'>0.80982E+02</wgt>
<wgt id='3269'>0.79664E+02</wgt>
<wgt id='3270'>0.80751E+02</wgt>
<wgt id='3271'>0.80437E+02</wgt>
<wgt id='3272'>0.81229E+02</wgt>
<wgt id='3273'>0.80250E+02</wgt>
<wgt id='3274'>0.80384E+02</wgt>
<wgt id='3275'>0.80376E+02</wgt>
<wgt id='3276'>0.81686E+02</wgt>
<wgt id='3277'>0.80313E+02</wgt>
<wgt id='3278'>0.80631E+02</wgt>
<wgt id='3279'>0.79976E+02</wgt>
<wgt id='3280'>0.79830E+02</wgt>
<wgt id='3281'>0.78524E+02</wgt>
<wgt id='3282'>0.81331E+02</wgt>
<wgt id='3283'>0.81201E+02</wgt>
<wgt id='3284'>0.80579E+02</wgt>
<wgt id='3285'>0.78864E+02</wgt>
<wgt id='3286'>0.81628E+02</wgt>
<wgt id='3287'>0.81993E+02</wgt>
<wgt id='3288'>0.80073E+02</wgt>
<wgt id='3289'>0.80553E+02</wgt>
<wgt id='3290'>0.78924E+02</wgt>
<wgt id='3291'>0.80911E+02</wgt>
<wgt id='3292'>0.80907E+02</wgt>
<wgt id='3293'>0.80609E+02</wgt>
<wgt id='3294'>0.80054E+02</wgt>
<wgt id='3295'>0.80288E+02</wgt>
<wgt id='3296'>0.82427E+02</wgt>
<wgt id='3297'>0.78383E+02</wgt>
<wgt id='3298'>0.79776E+02</wgt>
<wgt id='3299'>0.81269E+02</wgt>
<wgt id='3300'>0.78868E+02</wgt>
<wgt id='3301'>0.79348E+02</wgt>
<wgt id='3302'>0.81112E+02</wgt>
<wgt id='3400'>0.82262E+02</wgt>
<wgt id='3401'>0.81658E+02</wgt>
<wgt id='3402'>0.82194E+02</wgt>
<wgt id='3403'>0.82038E+02</wgt>
<wgt id='3404'>0.81175E+02</wgt>
<wgt id='3405'>0.81979E+02</wgt>
<wgt id='3406'>0.83109E+02</wgt>
<wgt id='3407'>0.82663E+02</wgt>
<wgt id='3408'>0.81088E+02</wgt>
<wgt id='3409'>0.83599E+02</wgt>
<wgt id='3410'>0.80860E+02</wgt>
<wgt id='3411'>0.81983E+02</wgt>
<wgt id='3412'>0.82617E+02</wgt>
<wgt id='3413'>0.82277E+02</wgt>
<wgt id='3414'>0.82549E+02</wgt>
<wgt id='3415'>0.82460E+02</wgt>
<wgt id='3416'>0.81058E+02</wgt>
<wgt id='3417'>0.83532E+02</wgt>
<wgt id='3418'>0.82615E+02</wgt>
<wgt id='3419'>0.82025E+02</wgt>
<wgt id='3420'>0.81606E+02</wgt>
<wgt id='3421'>0.82290E+02</wgt>
<wgt id='3422'>0.83423E+02</wgt>
<wgt id='3423'>0.82328E+02</wgt>
<wgt id='3424'>0.81825E+02</wgt>
<wgt id='3425'>0.82761E+02</wgt>
<wgt id='3426'>0.84130E+02</wgt>
<wgt id='3427'>0.82606E+02</wgt>
<wgt id='3428'>0.82693E+02</wgt>
<wgt id='3429'>0.81548E+02</wgt>
<wgt id='3430'>0.83054E+02</wgt>
<wgt id='3431'>0.81331E+02</wgt>
<wgt id='3432'>0.81358E+02</wgt>
<wgt id='3433'>0.82194E+02</wgt>
<wgt id='3434'>0.81159E+02</wgt>
<wgt id='3435'>0.81627E+02</wgt>
<wgt id='3436'>0.83607E+02</wgt>
<wgt id='3437'>0.81078E+02</wgt>
<wgt id='3438'>0.81409E+02</wgt>
<wgt id='3439'>0.81387E+02</wgt>
<wgt id='3440'>0.81397E+02</wgt>
<wgt id='3441'>0.81260E+02</wgt>
<wgt id='3442'>0.81553E+02</wgt>
<wgt id='3443'>0.81321E+02</wgt>
<wgt id='3444'>0.82802E+02</wgt>
<wgt id='3445'>0.81858E+02</wgt>
<wgt id='3446'>0.82074E+02</wgt>
<wgt id='3447'>0.84487E+02</wgt>
<wgt id='3448'>0.83211E+02</wgt>
<wgt id='3449'>0.82448E+02</wgt>
<wgt id='3450'>0.81834E+02</wgt>
<wgt id='3451'>0.82082E+02</wgt>
<wgt id='3452'>0.82174E+02</wgt>
<wgt id='3453'>0.82886E+02</wgt>
<wgt id='3454'>0.82659E+02</wgt>
<wgt id='3455'>0.82367E+02</wgt>
<wgt id='3456'>0.82746E+02</wgt>
<wgt id='3457'>0.82851E+02</wgt>
<wgt id='3458'>0.81464E+02</wgt>
<wgt id='3459'>0.83019E+02</wgt>
<wgt id='3460'>0.82696E+02</wgt>
<wgt id='3461'>0.81623E+02</wgt>
<wgt id='3462'>0.82287E+02</wgt>
<wgt id='3463'>0.82124E+02</wgt>
<wgt id='3464'>0.81667E+02</wgt>
<wgt id='3465'>0.82314E+02</wgt>
<wgt id='3466'>0.81529E+02</wgt>
<wgt id='3467'>0.82619E+02</wgt>
<wgt id='3468'>0.81715E+02</wgt>
<wgt id='3469'>0.83169E+02</wgt>
<wgt id='3470'>0.83068E+02</wgt>
<wgt id='3471'>0.82137E+02</wgt>
<wgt id='3472'>0.82719E+02</wgt>
<wgt id='3473'>0.82049E+02</wgt>
<wgt id='3474'>0.81411E+02</wgt>
<wgt id='3475'>0.82410E+02</wgt>
<wgt id='3476'>0.82583E+02</wgt>
<wgt id='3477'>0.83554E+02</wgt>
<wgt id='3478'>0.81230E+02</wgt>
<wgt id='3479'>0.83526E+02</wgt>
<wgt id='3480'>0.82571E+02</wgt>
<wgt id='3481'>0.82516E+02</wgt>
<wgt id='3482'>0.81825E+02</wgt>
<wgt id='3483'>0.81840E+02</wgt>
<wgt id='3484'>0.81344E+02</wgt>
<wgt id='3485'>0.82923E+02</wgt>
<wgt id='3486'>0.82351E+02</wgt>
<wgt id='3487'>0.82431E+02</wgt>
<wgt id='3488'>0.82327E+02</wgt>
<wgt id='3489'>0.82729E+02</wgt>
<wgt id='3490'>0.80657E+02</wgt>
<wgt id='3491'>0.82578E+02</wgt>
<wgt id='3492'>0.82827E+02</wgt>
<wgt id='3493'>0.81915E+02</wgt>
<wgt id='3494'>0.81059E+02</wgt>
<wgt id='3495'>0.82329E+02</wgt>
<wgt id='3496'>0.82965E+02</wgt>
<wgt id='3497'>0.82769E+02</wgt>
<wgt id='3498'>0.83385E+02</wgt>
<wgt id='3499'>0.83247E+02</wgt>
<wgt id='3500'>0.81881E+02</wgt>
</rwgt>
</event>
<event>
     13 322200  8.11039E+01  5.45754E+00 -1.00000E+00  2.26317E-01
      21    -1     0     0   504   505  0.000000000E+00  0.000000000E+00  1.382571129E+02  1.382571129E+02  0.000000000E+00  0.00000E+00  9.000E+00
      21    -1     0     0   502   503  0.000000000E+00  0.000000000E+00 -3.181196942E+02  3.181196942E+02  0.000000000E+00  0.00000E+00  9.000E+00
       6     2     1     2   502     0 -2.749743984E+01  5.203193189E+01 -2.001360866E+02  2.680393524E+02  1.683068927E+02  0.00000E+00  9.000E+00
      -6     2     1     2     0   505  2.210041428E+01 -5.122149128E+01  1.521087615E+01  1.808933354E+02  1.714029129E+02  0.00000E+00  9.000E+00
      21     1     1     2   504   503  5.397025558E+00 -8.104406070E-01  5.062629121E+00  7.444119321E+00  5.960464478E-08  0.00000E+00  9.000E+00
      24     2     3     3     0     0  3.004330317E+01  3.192055741E+01 -8.045651268E+01  1.336361958E+02  9.728237428E+01  0.00000E+00  9.000E+00
       5     1     3     3   502     0 -5.754074301E+01  2.011137448E+01 -1.196795739E+02  1.344031566E+02  5.060000000E+00  0.00000E+00 -1.000E+00
     -24     2     4     4     0     0  7.579356450E+01 -2.618639747E+01  3.502710556E+01  1.182196021E+02  7.948952359E+01  0.00000E+00  9.000E+00
      -5     1     4     4     0   505 -5.369315022E+01 -2.503509381E+01 -1.981622941E+01  6.267373334E+01  5.060000000E+00  0.00000E+00  1.000E+00
     -11     1     6     6     0     0  3.758686535E+01 -3.226623115E+00  7.637162195E+00  3.849038569E+01  5.100000000E-04  0.00000E+00  1.000E+00
      12     1     6     6     0     0 -7.543562182E+00  3.514718053E+01 -8.809367488E+01  9.514581012E+01  0.000000000E+00  0.00000E+00 -1.000E+00
      15     1     8     8     0     0  8.144921849E+00  1.680589325E+01  3.309496398E+01  3.804224191E+01  1.777000000E+00  0.00000E+00 -1.000E+00
     -16     1     8     8     0     0  6.764864265E+01 -4.299229072E+01  1.932141582E+00  8.017736018E+01  0.000000000E+00  0.00000E+00  1.000E+00
#rwgt            1           1   595.96411824932147               10        8128           0
<rwgt>
<wgt id='1001'>0.81104E+02</wgt>
<wgt id='1002'>0.82046E+02</wgt>
<wgt id='1003'>0.82087E+02</wgt>
<wgt id='1004'>0.74764E+02</wgt>
<wgt id='1005'>0.74920E+02</wgt>
<wgt id='1006'>0.76049E+02</wgt>
<wgt id='1007'>0.86642E+02</wgt>
<wgt id='1008'>0.88899E+02</wgt>
<wgt id='1009'>0.87025E+02</wgt>
<wgt id='2000'>0.81104E+02</wgt>
<wgt id='2001'>0.81174E+02</wgt>
<wgt id='2002'>0.80908E+02</wgt>
<wgt id='2003'>0.81053E+02</wgt>
<wgt id='2004'>0.81290E+02</wgt>
<wgt id='2005'>0.81174E+02</wgt>
<wgt id='2006'>0.81285E+02</wgt>
<wgt id='2007'>0.81316E+02</wgt>
<wgt id='2008'>0.81488E+02</wgt>
<wgt id='2009'>0.81013E+02</wgt>
<wgt id='2010'>0.81060E+02</wgt>
<wgt id='2011'>0.80760E+02</wgt>
<wgt id='2012'>0.81296E+02</wgt>
<wgt id='2013'>0.81191E+02</wgt>
<wgt id='2014'>0.81309E+02</wgt>
<wgt id='2015'>0.81247E+02</wgt>
<wgt id='2016'>0.81118E+02</wgt>
<wgt id='2017'>0.81089E+02</wgt>
<wgt id='2018'>0.81084E+02</wgt>
<wgt id='2019'>0.81290E+02</wgt>
<wgt id='2020'>0.80930E+02</wgt>
<wgt id='2021'>0.81083E+02</wgt>
<wgt id='2022'>0.81036E+02</wgt>
<wgt id='2023'>0.81145E+02</wgt>
<wgt id='2024'>0.81017E+02</wgt>
<wgt id='2025'>0.81065E+02</wgt>
<wgt id='2026'>0.81059E+02</wgt>
<wgt id='2027'>0.80911E+02</wgt>
<wgt id='2028'>0.81179E+02</wgt>
<wgt id='2029'>0.80844E+02</wgt>
<wgt id='2030'>0.81092E+02</wgt>
<wgt id='2031'>0.80862E+02</wgt>
<wgt id='2032'>0.81134E+02</wgt>
<wgt id='2033'>0.81021E+02</wgt>
<wgt id='2034'>0.80985E+02</wgt>
<wgt id='2035'>0.81117E+02</wgt>
<wgt id='2036'>0.81260E+02</wgt>
<wgt id='2037'>0.81092E+02</wgt>
<wgt id='2038'>0.81058E+02</wgt>
<wgt id='2039'>0.81114E+02</wgt>
<wgt id='2040'>0.81038E+02</wgt>
<wgt id='2041'>0.81107E+02</wgt>
<wgt id='2042'>0.81133E+02</wgt>
<wgt id='2043'>0.81076E+02</wgt>
<wgt id='2044'>0.81149E+02</wgt>
<wgt id='2045'>0.81126E+02</wgt>
<wgt id='2046'>0.81108E+02</wgt>
<wgt id='2047'>0.81084E+02</wgt>
<wgt id='2048'>0.81062E+02</wgt>
<wgt id='2049'>0.81043E+02</wgt>
<wgt id='2050'>0.81065E+02</wgt>
<wgt id='2051'>0.81092E+02</wgt>
<wgt id='2052'>0.81174E+02</wgt>
<wgt id='2053'>0.81091E+02</wgt>
<wgt id='2054'>0.81094E+02</wgt>
<wgt id='2055'>0.81117E+02</wgt>
<wgt id='2056'>0.81070E+02</wgt>
<wgt id='2057'>0.81128E+02</wgt>
<wgt id='2058'>0.81117E+02</wgt>
<wgt id='2059'>0.81108E+02</wgt>
<wgt id='2060'>0.81102E+02</wgt>
<wgt id='2061'>0.81089E+02</wgt>
<wgt id='2062'>0.81162E+02</wgt>
<wgt id='2063'>0.81120E+02</wgt>
<wgt id='2064'>0.81123E+02</wgt>
<wgt id='2065'>0.81168E+02</wgt>
<wgt id='2066'>0.81100E+02</wgt>
<wgt id='2067'>0.81122E+02</wgt>
<wgt id='2068'>0.81121E+02</wgt>
<wgt id='2069'>0.81107E+02</wgt>
<wgt id='2070'>0.81108E+02</wgt>
<wgt id='2071'>0.81105E+02</wgt>
<wgt id='2072'>0.81105E+02</wgt>
<wgt id='2073'>0.81121E+02</wgt>
<wgt id='2074'>0.81087E+02</wgt>
<wgt id='2075'>0.81093E+02</wgt>
<wgt id='2076'>0.81093E+02</wgt>
<wgt id='2077'>0.81144E+02</wgt>
<wgt id='2078'>0.81109E+02</wgt>
<wgt id='2079'>0.81087E+02</wgt>
<wgt id='2080'>0.81109E+02</wgt>
<wgt id='2081'>0.81094E+02</wgt>
<wgt id='2082'>0.81111E+02</wgt>
<wgt id='2083'>0.81128E+02</wgt>
<wgt id='2084'>0.81111E+02</wgt>
<wgt id='2085'>0.81104E+02</wgt>
<wgt id='2086'>0.81094E+02</wgt>
<wgt id='2087'>0.81112E+02</wgt>
<wgt id='2088'>0.81100E+02</wgt>
<wgt id='2089'>0.81098E+02</wgt>
<wgt id='2090'>0.81117E+02</wgt>
<wgt id='2091'>0.81106E+02</wgt>
<wgt id='2092'>0.81122E+02</wgt>
<wgt id='2093'>0.81094E+02</wgt>
<wgt id='2094'>0.81108E+02</wgt>
<wgt id='2095'>0.81117E+02</wgt>
<wgt id='2096'>0.81095E+02</wgt>
<wgt id='2097'>0.81114E+02</wgt>
<wgt id='2098'>0.81099E+02</wgt>
<wgt id='2099'>0.81114E+02</wgt>
<wgt id='2100'>0.81104E+02</wgt>
<wgt id='2101'>0.79110E+02</wgt>
<wgt id='2102'>0.83075E+02</wgt>
<wgt id='2200'>0.81147E+02</wgt>
<wgt id='2201'>0.71880E+02</wgt>
<wgt id='2202'>0.73618E+02</wgt>
<wgt id='2203'>0.75680E+02</wgt>
<wgt id='2204'>0.77541E+02</wgt>
<wgt id='2205'>0.80314E+02</wgt>
<wgt id='2206'>0.82253E+02</wgt>
<wgt id='2207'>0.84692E+02</wgt>
<wgt id='2208'>0.86609E+02</wgt>
<wgt id='2300'>0.84446E+02</wgt>
<wgt id='2301'>0.84568E+02</wgt>
<wgt id='2302'>0.84370E+02</wgt>
<wgt id='2303'>0.84535E+02</wgt>
<wgt id='2304'>0.84633E+02</wgt>
<wgt id='2305'>0.84657E+02</wgt>
<wgt id='2306'>0.84437E+02</wgt>
<wgt id='2307'>0.84664E+02</wgt>
<wgt id='2308'>0.84355E+02</wgt>
<wgt id='2309'>0.84655E+02</wgt>
<wgt id='2310'>0.84273E+02</wgt>
<wgt id='2311'>0.84353E+02</wgt>
<wgt id='2312'>0.84656E+02</wgt>
<wgt id='2313'>0.84363E+02</wgt>
<wgt id='2314'>0.84619E+02</wgt>
<wgt id='2315'>0.84387E+02</wgt>
<wgt id='2316'>0.84497E+02</wgt>
<wgt id='2317'>0.84616E+02</wgt>
<wgt id='2318'>0.84627E+02</wgt>
<wgt id='2319'>0.84230E+02</wgt>
<wgt id='2320'>0.84282E+02</wgt>
<wgt id='2321'>0.84221E+02</wgt>
<wgt id='2322'>0.84427E+02</wgt>
<wgt id='2323'>0.84298E+02</wgt>
<wgt id='2324'>0.84262E+02</wgt>
<wgt id='2325'>0.84475E+02</wgt>
<wgt id='2326'>0.84535E+02</wgt>
<wgt id='2327'>0.84476E+02</wgt>
<wgt id='2328'>0.84225E+02</wgt>
<wgt id='2329'>0.84330E+02</wgt>
<wgt id='2330'>0.84688E+02</wgt>
<wgt id='2331'>0.84560E+02</wgt>
<wgt id='2332'>0.84484E+02</wgt>
<wgt id='2333'>0.84535E+02</wgt>
<wgt id='2334'>0.84477E+02</wgt>
<wgt id='2335'>0.84563E+02</wgt>
<wgt id='2336'>0.84499E+02</wgt>
<wgt id='2337'>0.84461E+02</wgt>
<wgt id='2338'>0.84453E+02</wgt>
<wgt id='2339'>0.84465E+02</wgt>
<wgt id='2340'>0.84446E+02</wgt>
<wgt id='2341'>0.84485E+02</wgt>
<wgt id='2342'>0.84345E+02</wgt>
<wgt id='2343'>0.84339E+02</wgt>
<wgt id='2344'>0.84484E+02</wgt>
<wgt id='2345'>0.84508E+02</wgt>
<wgt id='2346'>0.84528E+02</wgt>
<wgt id='2347'>0.84441E+02</wgt>
<wgt id='2348'>0.84490E+02</wgt>
<wgt id='2349'>0.84429E+02</wgt>
<wgt id='2350'>0.84403E+02</wgt>
<wgt id='2351'>0.84539E+02</wgt>
<wgt id='2352'>0.84398E+02</wgt>
<wgt id='2353'>0.84416E+02</wgt>
<wgt id='2354'>0.84449E+02</wgt>
<wgt id='2355'>0.84374E+02</wgt>
<wgt id='2356'>0.84457E+02</wgt>
<wgt id='2357'>0.84424E+02</wgt>
<wgt id='2358'>0.84401E+02</wgt>
<wgt id='2359'>0.84440E+02</wgt>
<wgt id='2360'>0.84470E+02</wgt>
<wgt id='2361'>0.84449E+02</wgt>
<wgt id='2362'>0.84468E+02</wgt>
<wgt id='2363'>0.84474E+02</wgt>
<wgt id='2364'>0.84419E+02</wgt>
<wgt id='2365'>0.84431E+02</wgt>
<wgt id='2366'>0.84457E+02</wgt>
<wgt id='2367'>0.84400E+02</wgt>
<wgt id='2368'>0.84467E+02</wgt>
<wgt id='2369'>0.84433E+02</wgt>
<wgt id='2370'>0.84458E+02</wgt>
<wgt id='2371'>0.84430E+02</wgt>
<wgt id='2372'>0.84443E+02</wgt>
<wgt id='2373'>0.84413E+02</wgt>
<wgt id='2374'>0.84485E+02</wgt>
<wgt id='2375'>0.84439E+02</wgt>
<wgt id='2376'>0.84449E+02</wgt>
<wgt id='2377'>0.84463E+02</wgt>
<wgt id='2378'>0.84462E+02</wgt>
<wgt id='2379'>0.84440E+02</wgt>
<wgt id='2380'>0.84435E+02</wgt>
<wgt id='2381'>0.84450E+02</wgt>
<wgt id='2382'>0.84435E+02</wgt>
<wgt id='2383'>0.84449E+02</wgt>
<wgt id='2384'>0.84441E+02</wgt>
<wgt id='2385'>0.84454E+02</wgt>
<wgt id='2386'>0.84426E+02</wgt>
<wgt id='2387'>0.84435E+02</wgt>
<wgt id='2388'>0.84445E+02</wgt>
<wgt id='2389'>0.84449E+02</wgt>
<wgt id='2390'>0.84455E+02</wgt>
<wgt id='2391'>0.84451E+02</wgt>
<wgt id='2392'>0.84449E+02</wgt>
<wgt id='2393'>0.84448E+02</wgt>
<wgt id='2394'>0.84462E+02</wgt>
<wgt id='2395'>0.84447E+02</wgt>
<wgt id='2396'>0.84440E+02</wgt>
<wgt id='2397'>0.84434E+02</wgt>
<wgt id='2398'>0.84442E+02</wgt>
<wgt id='2399'>0.84458E+02</wgt>
<wgt id='2400'>0.84449E+02</wgt>
<wgt id='2401'>0.82434E+02</wgt>
<wgt id='2402'>0.86526E+02</wgt>
<wgt id='2500'>0.81146E+02</wgt>
<wgt id='2501'>0.85337E+02</wgt>
<wgt id='2600'>0.78936E+02</wgt>
<wgt id='2601'>0.78893E+02</wgt>
<wgt id='2602'>0.78897E+02</wgt>
<wgt id='2603'>0.78904E+02</wgt>
<wgt id='2604'>0.79027E+02</wgt>
<wgt id='2605'>0.78826E+02</wgt>
<wgt id='2606'>0.78753E+02</wgt>
<wgt id='2607'>0.79086E+02</wgt>
<wgt id='2608'>0.78859E+02</wgt>
<wgt id='2609'>0.78890E+02</wgt>
<wgt id='2610'>0.78898E+02</wgt>
<wgt id='2611'>0.78876E+02</wgt>
<wgt id='2612'>0.79212E+02</wgt>
<wgt id='2613'>0.78914E+02</wgt>
<wgt id='2614'>0.78923E+02</wgt>
<wgt id='2615'>0.78835E+02</wgt>
<wgt id='2616'>0.78922E+02</wgt>
<wgt id='2617'>0.78834E+02</wgt>
<wgt id='2618'>0.78797E+02</wgt>
<wgt id='2619'>0.78973E+02</wgt>
<wgt id='2620'>0.78945E+02</wgt>
<wgt id='2621'>0.78928E+02</wgt>
<wgt id='2622'>0.79006E+02</wgt>
<wgt id='2623'>0.78932E+02</wgt>
<wgt id='2624'>0.78937E+02</wgt>
<wgt id='2625'>0.78905E+02</wgt>
<wgt id='2626'>0.78933E+02</wgt>
<wgt id='2627'>0.78923E+02</wgt>
<wgt id='2628'>0.78941E+02</wgt>
<wgt id='2629'>0.78943E+02</wgt>
<wgt id='2630'>0.78945E+02</wgt>
<wgt id='2631'>0.78918E+02</wgt>
<wgt id='2632'>0.78929E+02</wgt>
<wgt id='2633'>0.78924E+02</wgt>
<wgt id='2634'>0.78924E+02</wgt>
<wgt id='2635'>0.78921E+02</wgt>
<wgt id='2636'>0.78935E+02</wgt>
<wgt id='2637'>0.78935E+02</wgt>
<wgt id='2638'>0.78936E+02</wgt>
<wgt id='2639'>0.78938E+02</wgt>
<wgt id='2640'>0.78933E+02</wgt>
<wgt id='2641'>0.78931E+02</wgt>
<wgt id='2642'>0.78938E+02</wgt>
<wgt id='2643'>0.78930E+02</wgt>
<wgt id='2644'>0.78935E+02</wgt>
<wgt id='2645'>0.78933E+02</wgt>
<wgt id='2646'>0.78936E+02</wgt>
<wgt id='2647'>0.78936E+02</wgt>
<wgt id='2648'>0.78937E+02</wgt>
<wgt id='2649'>0.78942E+02</wgt>
<wgt id='2650'>0.78938E+02</wgt>
<wgt id='2651'>0.77674E+02</wgt>
<wgt id='2652'>0.80096E+02</wgt>
<wgt id='2700'>0.76458E+02</wgt>
<wgt id='2701'>0.77674E+02</wgt>
<wgt id='2702'>0.78350E+02</wgt>
<wgt id='2703'>0.79455E+02</wgt>
<wgt id='2704'>0.80096E+02</wgt>
<wgt id='2705'>0.81229E+02</wgt>
<wgt id='2800'>0.80147E+02</wgt>
<wgt id='4000'>0.79926E+02</wgt>
<wgt id='4001'>0.80270E+02</wgt>
<wgt id='4002'>0.79813E+02</wgt>
<wgt id='4003'>0.80424E+02</wgt>
<wgt id='4004'>0.79344E+02</wgt>
<wgt id='4005'>0.79578E+02</wgt>
<wgt id='4006'>0.80229E+02</wgt>
<wgt id='4007'>0.80792E+02</wgt>
<wgt id='4008'>0.79060E+02</wgt>
<wgt id='4009'>0.80366E+02</wgt>
<wgt id='4010'>0.79562E+02</wgt>
<wgt id='4011'>0.80207E+02</wgt>
<wgt id='4012'>0.79660E+02</wgt>
<wgt id='4013'>0.80439E+02</wgt>
<wgt id='4014'>0.79480E+02</wgt>
<wgt id='4015'>0.79712E+02</wgt>
<wgt id='4016'>0.80045E+02</wgt>
<wgt id='4017'>0.79856E+02</wgt>
<wgt id='4018'>0.80038E+02</wgt>
<wgt id='4019'>0.80404E+02</wgt>
<wgt id='4020'>0.79180E+02</wgt>
<wgt id='4021'>0.79978E+02</wgt>
<wgt id='4022'>0.79810E+02</wgt>
<wgt id='4023'>0.79630E+02</wgt>
<wgt id='4024'>0.80242E+02</wgt>
<wgt id='4025'>0.80143E+02</wgt>
<wgt id='4026'>0.79377E+02</wgt>
<wgt id='4027'>0.79783E+02</wgt>
<wgt id='4028'>0.80070E+02</wgt>
<wgt id='4029'>0.79147E+02</wgt>
<wgt id='4030'>0.80094E+02</wgt>
<wgt id='4031'>0.79885E+02</wgt>
<wgt id='4032'>0.79654E+02</wgt>
<wgt id='4033'>0.79783E+02</wgt>
<wgt id='4034'>0.79903E+02</wgt>
<wgt id='4035'>0.80760E+02</wgt>
<wgt id='4036'>0.79271E+02</wgt>
<wgt id='4037'>0.81000E+02</wgt>
<wgt id='4038'>0.79013E+02</wgt>
<wgt id='4039'>0.81041E+02</wgt>
<wgt id='4040'>0.78752E+02</wgt>
<wgt id='4041'>0.79813E+02</wgt>
<wgt id='4042'>0.79947E+02</wgt>
<wgt id='4043'>0.78996E+02</wgt>
<wgt id='4044'>0.80261E+02</wgt>
<wgt id='4045'>0.81487E+02</wgt>
<wgt id='4046'>0.79194E+02</wgt>
<wgt id='4047'>0.78938E+02</wgt>
<wgt id='4048'>0.80328E+02</wgt>
<wgt id='4049'>0.79753E+02</wgt>
<wgt id='4050'>0.80042E+02</wgt>
<wgt id='4051'>0.80942E+02</wgt>
<wgt id='4052'>0.78956E+02</wgt>
<wgt id='4053'>0.80660E+02</wgt>
<wgt id='4054'>0.78941E+02</wgt>
<wgt id='4055'>0.80292E+02</wgt>
<wgt id='4056'>0.79493E+02</wgt>
<wgt id='4057'>0.79178E+02</wgt>
<wgt id='4058'>0.80432E+02</wgt>
<wgt id='4100'>0.80662E+02</wgt>
<wgt id='4101'>0.80313E+02</wgt>
<wgt id='4102'>0.79510E+02</wgt>
<wgt id='4103'>0.79071E+02</wgt>
<wgt id='4200'>0.77039E+02</wgt>
<wgt id='4201'>0.77164E+02</wgt>
<wgt id='4202'>0.77135E+02</wgt>
<wgt id='4203'>0.76507E+02</wgt>
<wgt id='4204'>0.77492E+02</wgt>
<wgt id='4205'>0.77000E+02</wgt>
<wgt id='4206'>0.77172E+02</wgt>
<wgt id='4207'>0.76864E+02</wgt>
<wgt id='4208'>0.77181E+02</wgt>
<wgt id='4209'>0.77184E+02</wgt>
<wgt id='4210'>0.77044E+02</wgt>
<wgt id='4211'>0.77911E+02</wgt>
<wgt id='4212'>0.76357E+02</wgt>
<wgt id='4213'>0.77172E+02</wgt>
<wgt id='4214'>0.76836E+02</wgt>
<wgt id='4215'>0.77182E+02</wgt>
<wgt id='4216'>0.76657E+02</wgt>
<wgt id='4217'>0.76734E+02</wgt>
<wgt id='4218'>0.77282E+02</wgt>
<wgt id='4219'>0.76067E+02</wgt>
<wgt id='4220'>0.77924E+02</wgt>
<wgt id='4221'>0.76528E+02</wgt>
<wgt id='4222'>0.77643E+02</wgt>
<wgt id='4223'>0.77539E+02</wgt>
<wgt id='4224'>0.76390E+02</wgt>
<wgt id='4225'>0.75711E+02</wgt>
<wgt id='4226'>0.78258E+02</wgt>
<wgt id='4227'>0.77476E+02</wgt>
<wgt id='4228'>0.76668E+02</wgt>
<wgt id='4229'>0.76548E+02</wgt>
<wgt id='4230'>0.77349E+02</wgt>
<wgt id='4231'>0.77019E+02</wgt>
<wgt id='4232'>0.77015E+02</wgt>
<wgt id='4233'>0.77290E+02</wgt>
<wgt id='4234'>0.76650E+02</wgt>
<wgt id='4235'>0.77388E+02</wgt>
<wgt id='4236'>0.76760E+02</wgt>
<wgt id='4237'>0.77107E+02</wgt>
<wgt id='4238'>0.76781E+02</wgt>
<wgt id='4239'>0.77729E+02</wgt>
<wgt id='4240'>0.75734E+02</wgt>
<wgt id='4241'>0.76657E+02</wgt>
<wgt id='4242'>0.77453E+02</wgt>
<wgt id='4243'>0.77035E+02</wgt>
<wgt id='4244'>0.77206E+02</wgt>
<wgt id='4245'>0.76266E+02</wgt>
<wgt id='4246'>0.77778E+02</wgt>
<wgt id='4247'>0.76767E+02</wgt>
<wgt id='4248'>0.77180E+02</wgt>
<wgt id='4249'>0.78079E+02</wgt>
<wgt id='4250'>0.75813E+02</wgt>
<wgt id='4251'>0.76232E+02</wgt>
<wgt id='4252'>0.77477E+02</wgt>
<wgt id='4253'>0.76697E+02</wgt>
<wgt id='4254'>0.77257E+02</wgt>
<wgt id='4255'>0.77188E+02</wgt>
<wgt id='4256'>0.76865E+02</wgt>
<wgt id='4257'>0.75656E+02</wgt>
<wgt id='4258'>0.77440E+02</wgt>
<wgt id='4300'>0.79177E+02</wgt>
<wgt id='4301'>0.78330E+02</wgt>
<wgt id='5000'>0.79626E+02</wgt>
<wgt id='5001'>0.79657E+02</wgt>
<wgt id='5002'>0.79587E+02</wgt>
<wgt id='5003'>0.79644E+02</wgt>
<wgt id='5004'>0.79611E+02</wgt>
<wgt id='5005'>0.79627E+02</wgt>
<wgt id='5006'>0.79626E+02</wgt>
<wgt id='5007'>0.79670E+02</wgt>
<wgt id='5008'>0.79591E+02</wgt>
<wgt id='5009'>0.79728E+02</wgt>
<wgt id='5010'>0.79522E+02</wgt>
<wgt id='5011'>0.79768E+02</wgt>
<wgt id='5012'>0.79490E+02</wgt>
<wgt id='5013'>0.79748E+02</wgt>
<wgt id='5014'>0.79540E+02</wgt>
<wgt id='5015'>0.79266E+02</wgt>
<wgt id='5016'>0.79266E+02</wgt>
<wgt id='5017'>0.80040E+02</wgt>
<wgt id='5018'>0.79347E+02</wgt>
<wgt id='5019'>0.79899E+02</wgt>
<wgt id='5020'>0.79253E+02</wgt>
<wgt id='5021'>0.79713E+02</wgt>
<wgt id='5022'>0.79491E+02</wgt>
<wgt id='5023'>0.79541E+02</wgt>
<wgt id='5024'>0.79830E+02</wgt>
<wgt id='5025'>0.79351E+02</wgt>
<wgt id='5026'>0.79935E+02</wgt>
<wgt id='5027'>0.79657E+02</wgt>
<wgt id='5028'>0.79543E+02</wgt>
<wgt id='5029'>0.80205E+02</wgt>
<wgt id='5030'>0.79298E+02</wgt>
<wgt id='5031'>0.79347E+02</wgt>
<wgt id='5032'>0.80475E+02</wgt>
<wgt id='5033'>0.79636E+02</wgt>
<wgt id='5034'>0.79617E+02</wgt>
<wgt id='5035'>0.79629E+02</wgt>
<wgt id='5036'>0.79625E+02</wgt>
<wgt id='5037'>0.79539E+02</wgt>
<wgt id='5038'>0.79677E+02</wgt>
<wgt id='5039'>0.79818E+02</wgt>
<wgt id='5040'>0.79153E+02</wgt>
<wgt id='5041'>0.79886E+02</wgt>
<wgt id='5042'>0.79368E+02</wgt>
<wgt id='5043'>0.79717E+02</wgt>
<wgt id='5044'>0.79584E+02</wgt>
<wgt id='5045'>0.79508E+02</wgt>
<wgt id='5046'>0.79779E+02</wgt>
<wgt id='5047'>0.79660E+02</wgt>
<wgt id='5048'>0.79475E+02</wgt>
<wgt id='5049'>0.79595E+02</wgt>
<wgt id='5050'>0.79689E+02</wgt>
<wgt id='5051'>0.79747E+02</wgt>
<wgt id='5052'>0.79517E+02</wgt>
<wgt id='5053'>0.79499E+02</wgt>
<wgt id='5054'>0.79763E+02</wgt>
<wgt id='5055'>0.79684E+02</wgt>
<wgt id='5056'>0.79632E+02</wgt>
<wgt id='5057'>0.79408E+02</wgt>
<wgt id='5058'>0.79779E+02</wgt>
<wgt id='5059'>0.79603E+02</wgt>
<wgt id='5060'>0.79648E+02</wgt>
<wgt id='5061'>0.79821E+02</wgt>
<wgt id='5062'>0.79655E+02</wgt>
<wgt id='5063'>0.79862E+02</wgt>
<wgt id='5064'>0.79588E+02</wgt>
<wgt id='5100'>0.79626E+02</wgt>
<wgt id='5101'>0.79652E+02</wgt>
<wgt id='6000'>0.79746E+02</wgt>
<wgt id='6001'>0.79823E+02</wgt>
<wgt id='6002'>0.79836E+02</wgt>
<wgt id='6003'>0.79692E+02</wgt>
<wgt id='6004'>0.79702E+02</wgt>
<wgt id='6005'>0.79605E+02</wgt>
<wgt id='6006'>0.79948E+02</wgt>
<wgt id='6007'>0.79599E+02</wgt>
<wgt id='6008'>0.79061E+02</wgt>
<wgt id='6009'>0.79961E+02</wgt>
<wgt id='6010'>0.78836E+02</wgt>
<wgt id='6011'>0.79715E+02</wgt>
<wgt id='6012'>0.79991E+02</wgt>
<wgt id='6013'>0.79516E+02</wgt>
<wgt id='6014'>0.79660E+02</wgt>
<wgt id='6015'>0.79230E+02</wgt>
<wgt id='6016'>0.79815E+02</wgt>
<wgt id='6017'>0.79731E+02</wgt>
<wgt id='6018'>0.79600E+02</wgt>
<wgt id='6019'>0.79767E+02</wgt>
<wgt id='6020'>0.79909E+02</wgt>
<wgt id='6021'>0.79788E+02</wgt>
<wgt id='6022'>0.79749E+02</wgt>
<wgt id='6023'>0.79770E+02</wgt>
<wgt id='6024'>0.79816E+02</wgt>
<wgt id='6025'>0.79969E+02</wgt>
<wgt id='6026'>0.79770E+02</wgt>
<wgt id='6027'>0.79764E+02</wgt>
<wgt id='6028'>0.79617E+02</wgt>
<wgt id='6029'>0.79634E+02</wgt>
<wgt id='6030'>0.80191E+02</wgt>
<wgt id='6031'>0.79585E+02</wgt>
<wgt id='6032'>0.79775E+02</wgt>
<wgt id='6033'>0.79639E+02</wgt>
<wgt id='6034'>0.79958E+02</wgt>
<wgt id='6035'>0.79790E+02</wgt>
<wgt id='6036'>0.80164E+02</wgt>
<wgt id='6037'>0.79757E+02</wgt>
<wgt id='6038'>0.79804E+02</wgt>
<wgt id='6039'>0.79865E+02</wgt>
<wgt id='6040'>0.79738E+02</wgt>
<wgt id='6041'>0.78891E+02</wgt>
<wgt id='6042'>0.80628E+02</wgt>
<wgt id='7000'>0.79167E+02</wgt>
<wgt id='7001'>0.78890E+02</wgt>
<wgt id='7002'>0.79044E+02</wgt>
<wgt id='7003'>0.78949E+02</wgt>
<wgt id='7004'>0.78985E+02</wgt>
<wgt id='7005'>0.79070E+02</wgt>
<wgt id='7006'>0.78864E+02</wgt>
<wgt id='7007'>0.79412E+02</wgt>
<wgt id='7008'>0.78535E+02</wgt>
<wgt id='7009'>0.78699E+02</wgt>
<wgt id='7010'>0.79245E+02</wgt>
<wgt id='7011'>0.79200E+02</wgt>
<wgt id='7012'>0.78735E+02</wgt>
<wgt id='7013'>0.78828E+02</wgt>
<wgt id='7014'>0.79098E+02</wgt>
<wgt id='7015'>0.78872E+02</wgt>
<wgt id='7016'>0.78855E+02</wgt>
<wgt id='7017'>0.78966E+02</wgt>
<wgt id='7018'>0.78969E+02</wgt>
<wgt id='7019'>0.78817E+02</wgt>
<wgt id='7020'>0.79124E+02</wgt>
<wgt id='7021'>0.79010E+02</wgt>
<wgt id='7022'>0.78906E+02</wgt>
<wgt id='7023'>0.78724E+02</wgt>
<wgt id='7024'>0.79228E+02</wgt>
<wgt id='7025'>0.78215E+02</wgt>
<wgt id='7026'>0.79659E+02</wgt>
<wgt id='7027'>0.78677E+02</wgt>
<wgt id='7028'>0.79301E+02</wgt>
<wgt id='8000'>0.79769E+02</wgt>
<wgt id='8001'>0.79759E+02</wgt>
<wgt id='8002'>0.79791E+02</wgt>
<wgt id='8003'>0.79772E+02</wgt>
<wgt id='8004'>0.79767E+02</wgt>
<wgt id='8005'>0.79633E+02</wgt>
<wgt id='8006'>0.79830E+02</wgt>
<wgt id='8007'>0.79892E+02</wgt>
<wgt id='8008'>0.79929E+02</wgt>
<wgt id='8009'>0.80067E+02</wgt>
<wgt id='8010'>0.79695E+02</wgt>
<wgt id='8011'>0.79773E+02</wgt>
<wgt id='8012'>0.79511E+02</wgt>
<wgt id='8013'>0.79637E+02</wgt>
<wgt id='8014'>0.79916E+02</wgt>
<wgt id='8015'>0.79722E+02</wgt>
<wgt id='8016'>0.79829E+02</wgt>
<wgt id='8017'>0.79805E+02</wgt>
<wgt id='8018'>0.79922E+02</wgt>
<wgt id='8019'>0.79841E+02</wgt>
<wgt id='8020'>0.79686E+02</wgt>
<wgt id='8021'>0.79715E+02</wgt>
<wgt id='8022'>0.79614E+02</wgt>
<wgt id='8023'>0.79722E+02</wgt>
<wgt id='8024'>0.79613E+02</wgt>
<wgt id='8025'>0.79787E+02</wgt>
<wgt id='8026'>0.79879E+02</wgt>
<wgt id='8027'>0.79790E+02</wgt>
<wgt id='8028'>0.79822E+02</wgt>
<wgt id='8029'>0.79619E+02</wgt>
<wgt id='3000'>0.81104E+02</wgt>
<wgt id='3001'>0.80736E+02</wgt>
<wgt id='3002'>0.80356E+02</wgt>
<wgt id='3003'>0.82357E+02</wgt>
<wgt id='3004'>0.81821E+02</wgt>
<wgt id='3005'>0.81079E+02</wgt>
<wgt id='3006'>0.83008E+02</wgt>
<wgt id='3007'>0.80472E+02</wgt>
<wgt id='3008'>0.80125E+02</wgt>
<wgt id='3009'>0.81997E+02</wgt>
<wgt id='3010'>0.82817E+02</wgt>
<wgt id='3011'>0.82246E+02</wgt>
<wgt id='3012'>0.81107E+02</wgt>
<wgt id='3013'>0.80305E+02</wgt>
<wgt id='3014'>0.80370E+02</wgt>
<wgt id='3015'>0.81498E+02</wgt>
<wgt id='3016'>0.82232E+02</wgt>
<wgt id='3017'>0.82568E+02</wgt>
<wgt id='3018'>0.80753E+02</wgt>
<wgt id='3019'>0.79851E+02</wgt>
<wgt id='3020'>0.80777E+02</wgt>
<wgt id='3021'>0.79546E+02</wgt>
<wgt id='3022'>0.79527E+02</wgt>
<wgt id='3023'>0.79808E+02</wgt>
<wgt id='3024'>0.79898E+02</wgt>
<wgt id='3025'>0.79912E+02</wgt>
<wgt id='3026'>0.80700E+02</wgt>
<wgt id='3027'>0.80207E+02</wgt>
<wgt id='3028'>0.80394E+02</wgt>
<wgt id='3029'>0.82303E+02</wgt>
<wgt id='3030'>0.82581E+02</wgt>
<wgt id='3031'>0.81769E+02</wgt>
<wgt id='3032'>0.81958E+02</wgt>
<wgt id='3033'>0.80387E+02</wgt>
<wgt id='3034'>0.80973E+02</wgt>
<wgt id='3035'>0.82269E+02</wgt>
<wgt id='3036'>0.80972E+02</wgt>
<wgt id='3037'>0.80773E+02</wgt>
<wgt id='3038'>0.80820E+02</wgt>
<wgt id='3039'>0.81400E+02</wgt>
<wgt id='3040'>0.80942E+02</wgt>
<wgt id='3041'>0.81524E+02</wgt>
<wgt id='3042'>0.80547E+02</wgt>
<wgt id='3043'>0.81221E+02</wgt>
<wgt id='3044'>0.80823E+02</wgt>
<wgt id='3045'>0.81308E+02</wgt>
<wgt id='3046'>0.81617E+02</wgt>
<wgt id='3047'>0.79399E+02</wgt>
<wgt id='3048'>0.79626E+02</wgt>
<wgt id='3049'>0.81616E+02</wgt>
<wgt id='3050'>0.82188E+02</wgt>
<wgt id='3051'>0.81182E+02</wgt>
<wgt id='3052'>0.80111E+02</wgt>
<wgt id='3053'>0.81050E+02</wgt>
<wgt id='3054'>0.80999E+02</wgt>
<wgt id='3055'>0.79787E+02</wgt>
<wgt id='3056'>0.80689E+02</wgt>
<wgt id='3057'>0.80431E+02</wgt>
<wgt id='3058'>0.79970E+02</wgt>
<wgt id='3059'>0.82678E+02</wgt>
<wgt id='3060'>0.81190E+02</wgt>
<wgt id='3061'>0.80838E+02</wgt>
<wgt id='3062'>0.80876E+02</wgt>
<wgt id='3063'>0.79478E+02</wgt>
<wgt id='3064'>0.80940E+02</wgt>
<wgt id='3065'>0.80349E+02</wgt>
<wgt id='3066'>0.81582E+02</wgt>
<wgt id='3067'>0.79682E+02</wgt>
<wgt id='3068'>0.81760E+02</wgt>
<wgt id='3069'>0.80671E+02</wgt>
<wgt id='3070'>0.79918E+02</wgt>
<wgt id='3071'>0.82448E+02</wgt>
<wgt id='3072'>0.81412E+02</wgt>
<wgt id='3073'>0.81982E+02</wgt>
<wgt id='3074'>0.82190E+02</wgt>
<wgt id='3075'>0.82303E+02</wgt>
<wgt id='3076'>0.82896E+02</wgt>
<wgt id='3077'>0.80426E+02</wgt>
<wgt id='3078'>0.81654E+02</wgt>
<wgt id='3079'>0.81125E+02</wgt>
<wgt id='3080'>0.81219E+02</wgt>
<wgt id='3081'>0.79733E+02</wgt>
<wgt id='3082'>0.82232E+02</wgt>
<wgt id='3083'>0.81195E+02</wgt>
<wgt id='3084'>0.81083E+02</wgt>
<wgt id='3085'>0.82094E+02</wgt>
<wgt id='3086'>0.79806E+02</wgt>
<wgt id='3087'>0.81702E+02</wgt>
<wgt id='3088'>0.82226E+02</wgt>
<wgt id='3089'>0.83738E+02</wgt>
<wgt id='3090'>0.80926E+02</wgt>
<wgt id='3091'>0.80509E+02</wgt>
<wgt id='3092'>0.82361E+02</wgt>
<wgt id='3093'>0.81791E+02</wgt>
<wgt id='3094'>0.81082E+02</wgt>
<wgt id='3095'>0.80673E+02</wgt>
<wgt id='3096'>0.80477E+02</wgt>
<wgt id='3097'>0.80585E+02</wgt>
<wgt id='3098'>0.81858E+02</wgt>
<wgt id='3099'>0.80343E+02</wgt>
<wgt id='3100'>0.80711E+02</wgt>
<wgt id='3200'>0.78946E+02</wgt>
<wgt id='3201'>0.79232E+02</wgt>
<wgt id='3202'>0.78045E+02</wgt>
<wgt id='3203'>0.78889E+02</wgt>
<wgt id='3204'>0.78436E+02</wgt>
<wgt id='3205'>0.79484E+02</wgt>
<wgt id='3206'>0.79368E+02</wgt>
<wgt id='3207'>0.79551E+02</wgt>
<wgt id='3208'>0.79320E+02</wgt>
<wgt id='3209'>0.78845E+02</wgt>
<wgt id='3210'>0.78948E+02</wgt>
<wgt id='3211'>0.79765E+02</wgt>
<wgt id='3212'>0.78216E+02</wgt>
<wgt id='3213'>0.78668E+02</wgt>
<wgt id='3214'>0.78230E+02</wgt>
<wgt id='3215'>0.78946E+02</wgt>
<wgt id='3216'>0.79386E+02</wgt>
<wgt id='3217'>0.79216E+02</wgt>
<wgt id='3218'>0.79083E+02</wgt>
<wgt id='3219'>0.78963E+02</wgt>
<wgt id='3220'>0.78257E+02</wgt>
<wgt id='3221'>0.79559E+02</wgt>
<wgt id='3222'>0.79633E+02</wgt>
<wgt id='3223'>0.78990E+02</wgt>
<wgt id='3224'>0.78653E+02</wgt>
<wgt id='3225'>0.79429E+02</wgt>
<wgt id='3226'>0.78937E+02</wgt>
<wgt id='3227'>0.78278E+02</wgt>
<wgt id='3228'>0.78379E+02</wgt>
<wgt id='3229'>0.79359E+02</wgt>
<wgt id='3230'>0.79476E+02</wgt>
<wgt id='3231'>0.79194E+02</wgt>
<wgt id='3232'>0.79310E+02</wgt>
<wgt id='3233'>0.79260E+02</wgt>
<wgt id='3234'>0.78994E+02</wgt>
<wgt id='3235'>0.78485E+02</wgt>
<wgt id='3236'>0.78388E+02</wgt>
<wgt id='3237'>0.78682E+02</wgt>
<wgt id='3238'>0.78791E+02</wgt>
<wgt id='3239'>0.78556E+02</wgt>
<wgt id='3240'>0.78922E+02</wgt>
<wgt id='3241'>0.79606E+02</wgt>
<wgt id='3242'>0.78399E+02</wgt>
<wgt id='3243'>0.78241E+02</wgt>
<wgt id='3244'>0.78748E+02</wgt>
<wgt id='3245'>0.79368E+02</wgt>
<wgt id='3246'>0.78382E+02</wgt>
<wgt id='3247'>0.78736E+02</wgt>
<wgt id='3248'>0.78688E+02</wgt>
<wgt id='3249'>0.78659E+02</wgt>
<wgt id='3250'>0.79263E+02</wgt>
<wgt id='3251'>0.78908E+02</wgt>
<wgt id='3252'>0.79120E+02</wgt>
<wgt id='3253'>0.78998E+02</wgt>
<wgt id='3254'>0.78900E+02</wgt>
<wgt id='3255'>0.78814E+02</wgt>
<wgt id='3256'>0.78398E+02</wgt>
<wgt id='3257'>0.78829E+02</wgt>
<wgt id='3258'>0.79263E+02</wgt>
<wgt id='3259'>0.78994E+02</wgt>
<wgt id='3260'>0.78891E+02</wgt>
<wgt id='3261'>0.79240E+02</wgt>
<wgt id='3262'>0.78689E+02</wgt>
<wgt id='3263'>0.79182E+02</wgt>
<wgt id='3264'>0.79205E+02</wgt>
<wgt id='3265'>0.79359E+02</wgt>
<wgt id='3266'>0.78682E+02</wgt>
<wgt id='3267'>0.78896E+02</wgt>
<wgt id='3268'>0.79621E+02</wgt>
<wgt id='3269'>0.79063E+02</wgt>
<wgt id='3270'>0.79231E+02</wgt>
<wgt id='3271'>0.79110E+02</wgt>
<wgt id='3272'>0.79344E+02</wgt>
<wgt id='3273'>0.79019E+02</wgt>
<wgt id='3274'>0.79174E+02</wgt>
<wgt id='3275'>0.79157E+02</wgt>
<wgt id='3276'>0.78753E+02</wgt>
<wgt id='3277'>0.78465E+02</wgt>
<wgt id='3278'>0.78973E+02</wgt>
<wgt id='3279'>0.79397E+02</wgt>
<wgt id='3280'>0.78716E+02</wgt>
<wgt id='3281'>0.79211E+02</wgt>
<wgt id='3282'>0.79293E+02</wgt>
<wgt id='3283'>0.79124E+02</wgt>
<wgt id='3284'>0.78872E+02</wgt>
<wgt id='3285'>0.78406E+02</wgt>
<wgt id='3286'>0.78850E+02</wgt>
<wgt id='3287'>0.78725E+02</wgt>
<wgt id='3288'>0.79262E+02</wgt>
<wgt id='3289'>0.80079E+02</wgt>
<wgt id='3290'>0.79734E+02</wgt>
<wgt id='3291'>0.77822E+02</wgt>
<wgt id='3292'>0.77951E+02</wgt>
<wgt id='3293'>0.78665E+02</wgt>
<wgt id='3294'>0.77945E+02</wgt>
<wgt id='3295'>0.78359E+02</wgt>
<wgt id='3296'>0.80028E+02</wgt>
<wgt id='3297'>0.78825E+02</wgt>
<wgt id='3298'>0.78915E+02</wgt>
<wgt id='3299'>0.78578E+02</wgt>
<wgt id='3300'>0.79419E+02</wgt>
<wgt id='3301'>0.77674E+02</wgt>
<wgt id='3302'>0.80096E+02</wgt>
<wgt id='3400'>0.78909E+02</wgt>
<wgt id='3401'>0.78954E+02</wgt>
<wgt id='3402'>0.78516E+02</wgt>
<wgt id='3403'>0.79755E+02</wgt>
<wgt id='3404'>0.80031E+02</wgt>
<wgt id='3405'>0.79491E+02</wgt>
<wgt id='3406'>0.79162E+02</wgt>
<wgt id='3407'>0.78531E+02</wgt>
<wgt id='3408'>0.80274E+02</wgt>
<wgt id='3409'>0.79813E+02</wgt>
<wgt id='3410'>0.78891E+02</wgt>
<wgt id='3411'>0.79521E+02</wgt>
<wgt id='3412'>0.79630E+02</wgt>
<wgt id='3413'>0.78787E+02</wgt>
<wgt id='3414'>0.78616E+02</wgt>
<wgt id='3415'>0.78938E+02</wgt>
<wgt id='3416'>0.78457E+02</wgt>
<wgt id='3417'>0.79158E+02</wgt>
<wgt id='3418'>0.78457E+02</wgt>
<wgt id='3419'>0.78564E+02</wgt>
<wgt id='3420'>0.79220E+02</wgt>
<wgt id='3421'>0.79143E+02</wgt>
<wgt id='3422'>0.79483E+02</wgt>
<wgt id='3423'>0.79446E+02</wgt>
<wgt id='3424'>0.79261E+02</wgt>
<wgt id='3425'>0.78634E+02</wgt>
<wgt id='3426'>0.79216E+02</wgt>
<wgt id='3427'>0.78871E+02</wgt>
<wgt id='3428'>0.79703E+02</wgt>
<wgt id='3429'>0.78353E+02</wgt>
<wgt id='3430'>0.79298E+02</wgt>
<wgt id='3431'>0.79033E+02</wgt>
<wgt id='3432'>0.79023E+02</wgt>
<wgt id='3433'>0.77753E+02</wgt>
<wgt id='3434'>0.78958E+02</wgt>
<wgt id='3435'>0.79057E+02</wgt>
<wgt id='3436'>0.78995E+02</wgt>
<wgt id='3437'>0.79025E+02</wgt>
<wgt id='3438'>0.78250E+02</wgt>
<wgt id='3439'>0.79204E+02</wgt>
<wgt id='3440'>0.79015E+02</wgt>
<wgt id='3441'>0.78867E+02</wgt>
<wgt id='3442'>0.77590E+02</wgt>
<wgt id='3443'>0.78765E+02</wgt>
<wgt id='3444'>0.78580E+02</wgt>
<wgt id='3445'>0.78465E+02</wgt>
<wgt id='3446'>0.79377E+02</wgt>
<wgt id='3447'>0.80170E+02</wgt>
<wgt id='3448'>0.79502E+02</wgt>
<wgt id='3449'>0.79415E+02</wgt>
<wgt id='3450'>0.78784E+02</wgt>
<wgt id='3451'>0.79870E+02</wgt>
<wgt id='3452'>0.78609E+02</wgt>
<wgt id='3453'>0.78312E+02</wgt>
<wgt id='3454'>0.78131E+02</wgt>
<wgt id='3455'>0.79836E+02</wgt>
<wgt id='3456'>0.79165E+02</wgt>
<wgt id='3457'>0.79592E+02</wgt>
<wgt id='3458'>0.78940E+02</wgt>
<wgt id='3459'>0.78694E+02</wgt>
<wgt id='3460'>0.78626E+02</wgt>
<wgt id='3461'>0.78337E+02</wgt>
<wgt id='3462'>0.78541E+02</wgt>
<wgt id='3463'>0.78097E+02</wgt>
<wgt id='3464'>0.79321E+02</wgt>
<wgt id='3465'>0.78759E+02</wgt>
<wgt id='3466'>0.79166E+02</wgt>
<wgt id='3467'>0.78630E+02</wgt>
<wgt id='3468'>0.78021E+02</wgt>
<wgt id='3469'>0.78873E+02</wgt>
<wgt id='3470'>0.78910E+02</wgt>
<wgt id='3471'>0.78845E+02</wgt>
<wgt id='3472'>0.78326E+02</wgt>
<wgt id='3473'>0.79291E+02</wgt>
<wgt id='3474'>0.78693E+02</wgt>
<wgt id='3475'>0.78782E+02</wgt>
<wgt id='3476'>0.79123E+02</wgt>
<wgt id='3477'>0.78083E+02</wgt>
<wgt id='3478'>0.79264E+02</wgt>
<wgt id='3479'>0.79686E+02</wgt>
<wgt id='3480'>0.78479E+02</wgt>
<wgt id='3481'>0.79202E+02</wgt>
<wgt id='3482'>0.78536E+02</wgt>
<wgt id='3483'>0.77736E+02</wgt>
<wgt id='3484'>0.78704E+02</wgt>
<wgt id='3485'>0.78664E+02</wgt>
<wgt id='3486'>0.77640E+02</wgt>
<wgt id='3487'>0.78997E+02</wgt>
<wgt id='3488'>0.79620E+02</wgt>
<wgt id='3489'>0.78152E+02</wgt>
<wgt id='3490'>0.79163E+02</wgt>
<wgt id='3491'>0.79100E+02</wgt>
<wgt id='3492'>0.79200E+02</wgt>
<wgt id='3493'>0.78606E+02</wgt>
<wgt id='3494'>0.77428E+02</wgt>
<wgt id='3495'>0.79111E+02</wgt>
<wgt id='3496'>0.77901E+02</wgt>
<wgt id='3497'>0.78393E+02</wgt>
<wgt id='3498'>0.79302E+02</wgt>
<wgt id='3499'>0.78885E+02</wgt>
<wgt id='3500'>0.79596E+02</wgt>
</rwgt>
</event>
<event>
     13 322200  8.11039E+01  6.37416E+01 -1.00000E+00  1.31471E-01
      21    -1     0     0   502   503  0.000000000E+00  0.000000000E+00  6.673523989E+02  6.673523989E+02  0.000000000E+00  0.00000E+00  9.000E+00
      -2    -1     0     0     0   512  0.000000000E+00  0.000000000E+00 -8.009703984E+02  8.009703984E+02  0.000000000E+00  0.00000E+00  9.000E+00
       6     2     1     2   502     0  1.877460692E+02 -2.446088269E+01  1.488846745E+02  2.967270315E+02  1.733013667E+02  0.00000E+00  9.000E+00
      -6     2     1     2     0   512 -1.407381221E+02  6.751019190E+01  4.129682328E+02  4.732099008E+02  1.703525869E+02  0.00000E+00  9.000E+00
      -2     1     1     2     0   503 -4.700794701E+01 -4.304930921E+01 -6.954709068E+02  6.983858650E+02  2.100000000E-01  0.00000E+00  9.000E+00
      24     2     3     3     0     0  6.398656495E+01 -4.359688682E+01  1.258940570E+02  1.693034324E+02  8.257947439E+01  0.00000E+00  9.000E+00
       5     1     3     3   502     0  1.237595042E+02  1.913600413E+01  2.299061749E+01  1.274235992E+02  5.060000000E+00  0.00000E+00 -1.000E+00
     -24     2     4     4     0     0 -2.666079157E+01 -1.847331774E+01  1.175165983E+02  1.449964440E+02  7.849685742E+01  0.00000E+00  9.000E+00
      -5     1     4     4     0   512 -1.140773306E+02  8.598350964E+01  2.954516345E+02  3.282134568E+02  5.060000000E+00  0.00000E+00  1.000E+00
     -15     1     6     6     0     0  1.492940362E+01  1.667873257E+01  1.343123607E+00  2.249508663E+01  1.777000000E+00  0.00000E+00  1.000E+00
      16     1     6     6     0     0  4.905716134E+01 -6.027561940E+01  1.245509334E+02  1.468083457E+02  0.000000000E+00  0.00000E+00 -1.000E+00
      13     1     8     8     0     0 -1.931000803E+01 -3.288884027E+01  1.463533762E+01  4.085041621E+01  1.057000000E-01  0.00000E+00 -1.000E+00
     -14     1     8     8     0     0 -7.350783537E+00  1.441552253E+01  1.028812607E+02  1.041460278E+02  0.000000000E+00  0.00000E+00  1.000E+00
#rwgt            1           1   713.32058742347374               10        8952           0
<rwgt>
<wgt id='1001'>0.81104E+02</wgt>
<wgt id='1002'>0.74094E+02</wgt>
<wgt id='1003'>0.88721E+02</wgt>
<wgt id='1004'>0.71397E+02</wgt>
<wgt id='1005'>0.65429E+02</wgt>
<wgt id='1006'>0.77868E+02</wgt>
<wgt id='1007'>0.92663E+02</wgt>
<wgt id='1008'>0.84307E+02</wgt>
<wgt id='1009'>0.10177E+03</wgt>
<wgt id='2000'>0.81104E+02</wgt>
<wgt id='2001'>0.80974E+02</wgt>
<wgt id='2002'>0.80945E+02</wgt>
<wgt id='2003'>0.81242E+02</wgt>
<wgt id='2004'>0.81269E+02</wgt>
<wgt id='2005'>0.81030E+02</wgt>
<wgt id='2006'>0.81262E+02</wgt>
<wgt id='2007'>0.81196E+02</wgt>
<wgt id='2008'>0.81249E+02</wgt>
<wgt id='2009'>0.81059E+02</wgt>
<wgt id='2010'>0.81028E+02</wgt>
<wgt id='2011'>0.81043E+02</wgt>
<wgt id='2012'>0.81200E+02</wgt>
<wgt id='2013'>0.81168E+02</wgt>
<wgt id='2014'>0.81215E+02</wgt>
<wgt id='2015'>0.81183E+02</wgt>
<wgt id='2016'>0.81204E+02</wgt>
<wgt id='2017'>0.81241E+02</wgt>
<wgt id='2018'>0.81186E+02</wgt>
<wgt id='2019'>0.80680E+02</wgt>
<wgt id='2020'>0.81195E+02</wgt>
<wgt id='2021'>0.81021E+02</wgt>
<wgt id='2022'>0.81207E+02</wgt>
<wgt id='2023'>0.81385E+02</wgt>
<wgt id='2024'>0.80860E+02</wgt>
<wgt id='2025'>0.81051E+02</wgt>
<wgt id='2026'>0.80951E+02</wgt>
<wgt id='2027'>0.80955E+02</wgt>
<wgt id='2028'>0.81206E+02</wgt>
<wgt id='2029'>0.80826E+02</wgt>
<wgt id='2030'>0.81165E+02</wgt>
<wgt id='2031'>0.80775E+02</wgt>
<wgt id='2032'>0.81107E+02</wgt>
<wgt id='2033'>0.80993E+02</wgt>
<wgt id='2034'>0.80904E+02</wgt>
<wgt id='2035'>0.81120E+02</wgt>
<wgt id='2036'>0.81279E+02</wgt>
<wgt id='2037'>0.81081E+02</wgt>
<wgt id='2038'>0.81026E+02</wgt>
<wgt id='2039'>0.81044E+02</wgt>
<wgt id='2040'>0.81073E+02</wgt>
<wgt id='2041'>0.81032E+02</wgt>
<wgt id='2042'>0.81216E+02</wgt>
<wgt id='2043'>0.81034E+02</wgt>
<wgt id='2044'>0.81184E+02</wgt>
<wgt id='2045'>0.81092E+02</wgt>
<wgt id='2046'>0.81090E+02</wgt>
<wgt id='2047'>0.81101E+02</wgt>
<wgt id='2048'>0.81102E+02</wgt>
<wgt id='2049'>0.81040E+02</wgt>
<wgt id='2050'>0.81069E+02</wgt>
<wgt id='2051'>0.81079E+02</wgt>
<wgt id='2052'>0.81180E+02</wgt>
<wgt id='2053'>0.81098E+02</wgt>
<wgt id='2054'>0.81096E+02</wgt>
<wgt id='2055'>0.81102E+02</wgt>
<wgt id='2056'>0.81033E+02</wgt>
<wgt id='2057'>0.81137E+02</wgt>
<wgt id='2058'>0.81135E+02</wgt>
<wgt id='2059'>0.81090E+02</wgt>
<wgt id='2060'>0.81099E+02</wgt>
<wgt id='2061'>0.81083E+02</wgt>
<wgt id='2062'>0.81164E+02</wgt>
<wgt id='2063'>0.81116E+02</wgt>
<wgt id='2064'>0.81111E+02</wgt>
<wgt id='2065'>0.81175E+02</wgt>
<wgt id='2066'>0.81082E+02</wgt>
<wgt id='2067'>0.81112E+02</wgt>
<wgt id='2068'>0.81129E+02</wgt>
<wgt id='2069'>0.81106E+02</wgt>
<wgt id='2070'>0.81111E+02</wgt>
<wgt id='2071'>0.81090E+02</wgt>
<wgt id='2072'>0.81096E+02</wgt>
<wgt id='2073'>0.81114E+02</wgt>
<wgt id='2074'>0.81089E+02</wgt>
<wgt id='2075'>0.81090E+02</wgt>
<wgt id='2076'>0.81083E+02</wgt>
<wgt id='2077'>0.81153E+02</wgt>
<wgt id='2078'>0.81116E+02</wgt>
<wgt id='2079'>0.81086E+02</wgt>
<wgt id='2080'>0.81118E+02</wgt>
<wgt id='2081'>0.81093E+02</wgt>
<wgt id='2082'>0.81113E+02</wgt>
<wgt id='2083'>0.81140E+02</wgt>
<wgt id='2084'>0.81108E+02</wgt>
<wgt id='2085'>0.81109E+02</wgt>
<wgt id='2086'>0.81086E+02</wgt>
<wgt id='2087'>0.81118E+02</wgt>
<wgt id='2088'>0.81098E+02</wgt>
<wgt id='2089'>0.81088E+02</wgt>
<wgt id='2090'>0.81119E+02</wgt>
<wgt id='2091'>0.81105E+02</wgt>
<wgt id='2092'>0.81130E+02</wgt>
<wgt id='2093'>0.81085E+02</wgt>
<wgt id='2094'>0.81109E+02</wgt>
<wgt id='2095'>0.81127E+02</wgt>
<wgt id='2096'>0.81092E+02</wgt>
<wgt id='2097'>0.81118E+02</wgt>
<wgt id='2098'>0.81100E+02</wgt>
<wgt id='2099'>0.81116E+02</wgt>
<wgt id='2100'>0.81104E+02</wgt>
<wgt id='2101'>0.79134E+02</wgt>
<wgt id='2102'>0.83362E+02</wgt>
<wgt id='2200'>0.81187E+02</wgt>
<wgt id='2201'>0.70997E+02</wgt>
<wgt id='2202'>0.73119E+02</wgt>
<wgt id='2203'>0.74976E+02</wgt>
<wgt id='2204'>0.76783E+02</wgt>
<wgt id='2205'>0.80201E+02</wgt>
<wgt id='2206'>0.82379E+02</wgt>
<wgt id='2207'>0.85360E+02</wgt>
<wgt id='2208'>0.87448E+02</wgt>
<wgt id='2300'>0.84995E+02</wgt>
<wgt id='2301'>0.85131E+02</wgt>
<wgt id='2302'>0.84859E+02</wgt>
<wgt id='2303'>0.84987E+02</wgt>
<wgt id='2304'>0.85252E+02</wgt>
<wgt id='2305'>0.85038E+02</wgt>
<wgt id='2306'>0.84960E+02</wgt>
<wgt id='2307'>0.85064E+02</wgt>
<wgt id='2308'>0.84939E+02</wgt>
<wgt id='2309'>0.85112E+02</wgt>
<wgt id='2310'>0.84835E+02</wgt>
<wgt id='2311'>0.84900E+02</wgt>
<wgt id='2312'>0.85098E+02</wgt>
<wgt id='2313'>0.84975E+02</wgt>
<wgt id='2314'>0.85005E+02</wgt>
<wgt id='2315'>0.84950E+02</wgt>
<wgt id='2316'>0.85025E+02</wgt>
<wgt id='2317'>0.84978E+02</wgt>
<wgt id='2318'>0.85009E+02</wgt>
<wgt id='2319'>0.85114E+02</wgt>
<wgt id='2320'>0.85181E+02</wgt>
<wgt id='2321'>0.85177E+02</wgt>
<wgt id='2322'>0.84987E+02</wgt>
<wgt id='2323'>0.85058E+02</wgt>
<wgt id='2324'>0.85114E+02</wgt>
<wgt id='2325'>0.85107E+02</wgt>
<wgt id='2326'>0.84787E+02</wgt>
<wgt id='2327'>0.85067E+02</wgt>
<wgt id='2328'>0.85044E+02</wgt>
<wgt id='2329'>0.84769E+02</wgt>
<wgt id='2330'>0.85552E+02</wgt>
<wgt id='2331'>0.85271E+02</wgt>
<wgt id='2332'>0.84855E+02</wgt>
<wgt id='2333'>0.85017E+02</wgt>
<wgt id='2334'>0.84924E+02</wgt>
<wgt id='2335'>0.85286E+02</wgt>
<wgt id='2336'>0.85135E+02</wgt>
<wgt id='2337'>0.84994E+02</wgt>
<wgt id='2338'>0.85024E+02</wgt>
<wgt id='2339'>0.85219E+02</wgt>
<wgt id='2340'>0.84889E+02</wgt>
<wgt id='2341'>0.84977E+02</wgt>
<wgt id='2342'>0.84848E+02</wgt>
<wgt id='2343'>0.84794E+02</wgt>
<wgt id='2344'>0.85138E+02</wgt>
<wgt id='2345'>0.85105E+02</wgt>
<wgt id='2346'>0.85129E+02</wgt>
<wgt id='2347'>0.84976E+02</wgt>
<wgt id='2348'>0.85030E+02</wgt>
<wgt id='2349'>0.84938E+02</wgt>
<wgt id='2350'>0.84876E+02</wgt>
<wgt id='2351'>0.85197E+02</wgt>
<wgt id='2352'>0.84956E+02</wgt>
<wgt id='2353'>0.84971E+02</wgt>
<wgt id='2354'>0.85008E+02</wgt>
<wgt id='2355'>0.85011E+02</wgt>
<wgt id='2356'>0.85018E+02</wgt>
<wgt id='2357'>0.84994E+02</wgt>
<wgt id='2358'>0.84947E+02</wgt>
<wgt id='2359'>0.85001E+02</wgt>
<wgt id='2360'>0.85029E+02</wgt>
<wgt id='2361'>0.85047E+02</wgt>
<wgt id='2362'>0.85013E+02</wgt>
<wgt id='2363'>0.85015E+02</wgt>
<wgt id='2364'>0.84991E+02</wgt>
<wgt id='2365'>0.84999E+02</wgt>
<wgt id='2366'>0.85019E+02</wgt>
<wgt id='2367'>0.84946E+02</wgt>
<wgt id='2368'>0.84998E+02</wgt>
<wgt id='2369'>0.84937E+02</wgt>
<wgt id='2370'>0.84957E+02</wgt>
<wgt id='2371'>0.84998E+02</wgt>
<wgt id='2372'>0.85033E+02</wgt>
<wgt id='2373'>0.84982E+02</wgt>
<wgt id='2374'>0.85057E+02</wgt>
<wgt id='2375'>0.85021E+02</wgt>
<wgt id='2376'>0.85003E+02</wgt>
<wgt id='2377'>0.84986E+02</wgt>
<wgt id='2378'>0.85037E+02</wgt>
<wgt id='2379'>0.84959E+02</wgt>
<wgt id='2380'>0.84961E+02</wgt>
<wgt id='2381'>0.84971E+02</wgt>
<wgt id='2382'>0.84969E+02</wgt>
<wgt id='2383'>0.85006E+02</wgt>
<wgt id='2384'>0.84982E+02</wgt>
<wgt id='2385'>0.85014E+02</wgt>
<wgt id='2386'>0.85006E+02</wgt>
<wgt id='2387'>0.84982E+02</wgt>
<wgt id='2388'>0.84977E+02</wgt>
<wgt id='2389'>0.85002E+02</wgt>
<wgt id='2390'>0.84989E+02</wgt>
<wgt id='2391'>0.84978E+02</wgt>
<wgt id='2392'>0.84986E+02</wgt>
<wgt id='2393'>0.85010E+02</wgt>
<wgt id='2394'>0.85007E+02</wgt>
<wgt id='2395'>0.85003E+02</wgt>
<wgt id='2396'>0.84973E+02</wgt>
<wgt id='2397'>0.84973E+02</wgt>
<wgt id='2398'>0.84983E+02</wgt>
<wgt id='2399'>0.85007E+02</wgt>
<wgt id='2400'>0.85006E+02</wgt>
<wgt id='2401'>0.82830E+02</wgt>
<wgt id='2402'>0.87172E+02</wgt>
<wgt id='2500'>0.81862E+02</wgt>
<wgt id='2501'>0.86835E+02</wgt>
<wgt id='2600'>0.79068E+02</wgt>
<wgt id='2601'>0.78953E+02</wgt>
<wgt id='2602'>0.79082E+02</wgt>
<wgt id='2603'>0.79045E+02</wgt>
<wgt id='2604'>0.79128E+02</wgt>
<wgt id='2605'>0.78968E+02</wgt>
<wgt id='2606'>0.79012E+02</wgt>
<wgt id='2607'>0.79141E+02</wgt>
<wgt id='2608'>0.79099E+02</wgt>
<wgt id='2609'>0.78997E+02</wgt>
<wgt id='2610'>0.79014E+02</wgt>
<wgt id='2611'>0.79021E+02</wgt>
<wgt id='2612'>0.79208E+02</wgt>
<wgt id='2613'>0.79053E+02</wgt>
<wgt id='2614'>0.79018E+02</wgt>
<wgt id='2615'>0.78893E+02</wgt>
<wgt id='2616'>0.79077E+02</wgt>
<wgt id='2617'>0.78887E+02</wgt>
<wgt id='2618'>0.78943E+02</wgt>
<wgt id='2619'>0.79135E+02</wgt>
<wgt id='2620'>0.79014E+02</wgt>
<wgt id='2621'>0.79116E+02</wgt>
<wgt id='2622'>0.79337E+02</wgt>
<wgt id='2623'>0.79061E+02</wgt>
<wgt id='2624'>0.79056E+02</wgt>
<wgt id='2625'>0.79036E+02</wgt>
<wgt id='2626'>0.79059E+02</wgt>
<wgt id='2627'>0.79083E+02</wgt>
<wgt id='2628'>0.79075E+02</wgt>
<wgt id='2629'>0.79090E+02</wgt>
<wgt id='2630'>0.79131E+02</wgt>
<wgt id='2631'>0.78960E+02</wgt>
<wgt id='2632'>0.79068E+02</wgt>
<wgt id='2633'>0.79021E+02</wgt>
<wgt id='2634'>0.78990E+02</wgt>
<wgt id='2635'>0.79048E+02</wgt>
<wgt id='2636'>0.79059E+02</wgt>
<wgt id='2637'>0.79083E+02</wgt>
<wgt id='2638'>0.79098E+02</wgt>
<wgt id='2639'>0.79072E+02</wgt>
<wgt id='2640'>0.79058E+02</wgt>
<wgt id='2641'>0.79092E+02</wgt>
<wgt id='2642'>0.79085E+02</wgt>
<wgt id='2643'>0.79058E+02</wgt>
<wgt id='2644'>0.79061E+02</wgt>
<wgt id='2645'>0.79068E+02</wgt>
<wgt id='2646'>0.79103E+02</wgt>
<wgt id='2647'>0.79061E+02</wgt>
<wgt id='2648'>0.79059E+02</wgt>
<wgt id='2649'>0.79066E+02</wgt>
<wgt id='2650'>0.79069E+02</wgt>
<wgt id='2651'>0.77718E+02</wgt>
<wgt id='2652'>0.80256E+02</wgt>
<wgt id='2700'>0.76504E+02</wgt>
<wgt id='2701'>0.77718E+02</wgt>
<wgt id='2702'>0.78446E+02</wgt>
<wgt id='2703'>0.79614E+02</wgt>
<wgt id='2704'>0.80256E+02</wgt>
<wgt id='2705'>0.81455E+02</wgt>
<wgt id='2800'>0.80403E+02</wgt>
<wgt id='4000'>0.81233E+02</wgt>
<wgt id='4001'>0.81547E+02</wgt>
<wgt id='4002'>0.81176E+02</wgt>
<wgt id='4003'>0.81260E+02</wgt>
<wgt id='4004'>0.81210E+02</wgt>
<wgt id='4005'>0.81066E+02</wgt>
<wgt id='4006'>0.81455E+02</wgt>
<wgt id='4007'>0.82016E+02</wgt>
<wgt id='4008'>0.80481E+02</wgt>
<wgt id='4009'>0.81381E+02</wgt>
<wgt id='4010'>0.81005E+02</wgt>
<wgt id='4011'>0.81598E+02</wgt>
<wgt id='4012'>0.80840E+02</wgt>
<wgt id='4013'>0.81644E+02</wgt>
<wgt id='4014'>0.80925E+02</wgt>
<wgt id='4015'>0.80908E+02</wgt>
<wgt id='4016'>0.81841E+02</wgt>
<wgt id='4017'>0.81193E+02</wgt>
<wgt id='4018'>0.81311E+02</wgt>
<wgt id='4019'>0.81604E+02</wgt>
<wgt id='4020'>0.80710E+02</wgt>
<wgt id='4021'>0.81371E+02</wgt>
<wgt id='4022'>0.80977E+02</wgt>
<wgt id='4023'>0.81336E+02</wgt>
<wgt id='4024'>0.81394E+02</wgt>
<wgt id='4025'>0.81382E+02</wgt>
<wgt id='4026'>0.80935E+02</wgt>
<wgt id='4027'>0.81437E+02</wgt>
<wgt id='4028'>0.81097E+02</wgt>
<wgt id='4029'>0.81238E+02</wgt>
<wgt id='4030'>0.80710E+02</wgt>
<wgt id='4031'>0.80980E+02</wgt>
<wgt id='4032'>0.81851E+02</wgt>
<wgt id='4033'>0.81536E+02</wgt>
<wgt id='4034'>0.80735E+02</wgt>
<wgt id='4035'>0.82163E+02</wgt>
<wgt id='4036'>0.80517E+02</wgt>
<wgt id='4037'>0.82948E+02</wgt>
<wgt id='4038'>0.79934E+02</wgt>
<wgt id='4039'>0.82758E+02</wgt>
<wgt id='4040'>0.79722E+02</wgt>
<wgt id='4041'>0.81384E+02</wgt>
<wgt id='4042'>0.80983E+02</wgt>
<wgt id='4043'>0.80628E+02</wgt>
<wgt id='4044'>0.81006E+02</wgt>
<wgt id='4045'>0.82275E+02</wgt>
<wgt id='4046'>0.80739E+02</wgt>
<wgt id='4047'>0.80746E+02</wgt>
<wgt id='4048'>0.81520E+02</wgt>
<wgt id='4049'>0.81228E+02</wgt>
<wgt id='4050'>0.81231E+02</wgt>
<wgt id='4051'>0.82064E+02</wgt>
<wgt id='4052'>0.80555E+02</wgt>
<wgt id='4053'>0.81539E+02</wgt>
<wgt id='4054'>0.80440E+02</wgt>
<wgt id='4055'>0.81648E+02</wgt>
<wgt id='4056'>0.80812E+02</wgt>
<wgt id='4057'>0.80467E+02</wgt>
<wgt id='4058'>0.81746E+02</wgt>
<wgt id='4100'>0.81785E+02</wgt>
<wgt id='4101'>0.81508E+02</wgt>
<wgt id='4102'>0.80955E+02</wgt>
<wgt id='4103'>0.80669E+02</wgt>
<wgt id='4200'>0.78614E+02</wgt>
<wgt id='4201'>0.78655E+02</wgt>
<wgt id='4202'>0.78790E+02</wgt>
<wgt id='4203'>0.78044E+02</wgt>
<wgt id='4204'>0.79012E+02</wgt>
<wgt id='4205'>0.78547E+02</wgt>
<wgt id='4206'>0.78856E+02</wgt>
<wgt id='4207'>0.78752E+02</wgt>
<wgt id='4208'>0.78567E+02</wgt>
<wgt id='4209'>0.78657E+02</wgt>
<wgt id='4210'>0.78676E+02</wgt>
<wgt id='4211'>0.79504E+02</wgt>
<wgt id='4212'>0.77914E+02</wgt>
<wgt id='4213'>0.78807E+02</wgt>
<wgt id='4214'>0.78301E+02</wgt>
<wgt id='4215'>0.78631E+02</wgt>
<wgt id='4216'>0.78492E+02</wgt>
<wgt id='4217'>0.78338E+02</wgt>
<wgt id='4218'>0.78791E+02</wgt>
<wgt id='4219'>0.77753E+02</wgt>
<wgt id='4220'>0.79438E+02</wgt>
<wgt id='4221'>0.78044E+02</wgt>
<wgt id='4222'>0.79337E+02</wgt>
<wgt id='4223'>0.78622E+02</wgt>
<wgt id='4224'>0.78079E+02</wgt>
<wgt id='4225'>0.77427E+02</wgt>
<wgt id='4226'>0.79855E+02</wgt>
<wgt id='4227'>0.79240E+02</wgt>
<wgt id='4228'>0.78087E+02</wgt>
<wgt id='4229'>0.77638E+02</wgt>
<wgt id='4230'>0.79343E+02</wgt>
<wgt id='4231'>0.78721E+02</wgt>
<wgt id='4232'>0.78393E+02</wgt>
<wgt id='4233'>0.78817E+02</wgt>
<wgt id='4234'>0.78079E+02</wgt>
<wgt id='4235'>0.79173E+02</wgt>
<wgt id='4236'>0.78106E+02</wgt>
<wgt id='4237'>0.79143E+02</wgt>
<wgt id='4238'>0.77714E+02</wgt>
<wgt id='4239'>0.78753E+02</wgt>
<wgt id='4240'>0.77781E+02</wgt>
<wgt id='4241'>0.78432E+02</wgt>
<wgt id='4242'>0.78793E+02</wgt>
<wgt id='4243'>0.78656E+02</wgt>
<wgt id='4244'>0.78784E+02</wgt>
<wgt id='4245'>0.78083E+02</wgt>
<wgt id='4246'>0.78984E+02</wgt>
<wgt id='4247'>0.78224E+02</wgt>
<wgt id='4248'>0.78782E+02</wgt>
<wgt id='4249'>0.79772E+02</wgt>
<wgt id='4250'>0.77262E+02</wgt>
<wgt id='4251'>0.78414E+02</wgt>
<wgt id='4252'>0.78663E+02</wgt>
<wgt id='4253'>0.78468E+02</wgt>
<wgt id='4254'>0.78568E+02</wgt>
<wgt id='4255'>0.79314E+02</wgt>
<wgt id='4256'>0.78177E+02</wgt>
<wgt id='4257'>0.77180E+02</wgt>
<wgt id='4258'>0.79028E+02</wgt>
<wgt id='4300'>0.80410E+02</wgt>
<wgt id='4301'>0.80100E+02</wgt>
<wgt id='5000'>0.81271E+02</wgt>
<wgt id='5001'>0.81311E+02</wgt>
<wgt id='5002'>0.81219E+02</wgt>
<wgt id='5003'>0.81290E+02</wgt>
<wgt id='5004'>0.81254E+02</wgt>
<wgt id='5005'>0.81277E+02</wgt>
<wgt id='5006'>0.81261E+02</wgt>
<wgt id='5007'>0.81343E+02</wgt>
<wgt id='5008'>0.81212E+02</wgt>
<wgt id='5009'>0.81378E+02</wgt>
<wgt id='5010'>0.81160E+02</wgt>
<wgt id='5011'>0.81480E+02</wgt>
<wgt id='5012'>0.81069E+02</wgt>
<wgt id='5013'>0.81395E+02</wgt>
<wgt id='5014'>0.81183E+02</wgt>
<wgt id='5015'>0.80866E+02</wgt>
<wgt id='5016'>0.80866E+02</wgt>
<wgt id='5017'>0.81685E+02</wgt>
<wgt id='5018'>0.80991E+02</wgt>
<wgt id='5019'>0.81563E+02</wgt>
<wgt id='5020'>0.80871E+02</wgt>
<wgt id='5021'>0.81367E+02</wgt>
<wgt id='5022'>0.81120E+02</wgt>
<wgt id='5023'>0.81196E+02</wgt>
<wgt id='5024'>0.81450E+02</wgt>
<wgt id='5025'>0.81008E+02</wgt>
<wgt id='5026'>0.81565E+02</wgt>
<wgt id='5027'>0.81316E+02</wgt>
<wgt id='5028'>0.81149E+02</wgt>
<wgt id='5029'>0.82084E+02</wgt>
<wgt id='5030'>0.80812E+02</wgt>
<wgt id='5031'>0.80839E+02</wgt>
<wgt id='5032'>0.82586E+02</wgt>
<wgt id='5033'>0.81247E+02</wgt>
<wgt id='5034'>0.81297E+02</wgt>
<wgt id='5035'>0.81279E+02</wgt>
<wgt id='5036'>0.81261E+02</wgt>
<wgt id='5037'>0.81094E+02</wgt>
<wgt id='5038'>0.81371E+02</wgt>
<wgt id='5039'>0.81470E+02</wgt>
<wgt id='5040'>0.80780E+02</wgt>
<wgt id='5041'>0.81313E+02</wgt>
<wgt id='5042'>0.81232E+02</wgt>
<wgt id='5043'>0.81416E+02</wgt>
<wgt id='5044'>0.81181E+02</wgt>
<wgt id='5045'>0.81242E+02</wgt>
<wgt id='5046'>0.81334E+02</wgt>
<wgt id='5047'>0.81330E+02</wgt>
<wgt id='5048'>0.81013E+02</wgt>
<wgt id='5049'>0.81216E+02</wgt>
<wgt id='5050'>0.81402E+02</wgt>
<wgt id='5051'>0.81444E+02</wgt>
<wgt id='5052'>0.81137E+02</wgt>
<wgt id='5053'>0.81253E+02</wgt>
<wgt id='5054'>0.81451E+02</wgt>
<wgt id='5055'>0.81323E+02</wgt>
<wgt id='5056'>0.81302E+02</wgt>
<wgt id='5057'>0.80982E+02</wgt>
<wgt id='5058'>0.81474E+02</wgt>
<wgt id='5059'>0.81204E+02</wgt>
<wgt id='5060'>0.81317E+02</wgt>
<wgt id='5061'>0.81514E+02</wgt>
<wgt id='5062'>0.81388E+02</wgt>
<wgt id='5063'>0.81564E+02</wgt>
<wgt id='5064'>0.81267E+02</wgt>
<wgt id='5100'>0.81271E+02</wgt>
<wgt id='5101'>0.81275E+02</wgt>
<wgt id='6000'>0.80818E+02</wgt>
<wgt id='6001'>0.80695E+02</wgt>
<wgt id='6002'>0.80640E+02</wgt>
<wgt id='6003'>0.80648E+02</wgt>
<wgt id='6004'>0.80909E+02</wgt>
<wgt id='6005'>0.80478E+02</wgt>
<wgt id='6006'>0.80949E+02</wgt>
<wgt id='6007'>0.80521E+02</wgt>
<wgt id='6008'>0.80653E+02</wgt>
<wgt id='6009'>0.80823E+02</wgt>
<wgt id='6010'>0.79960E+02</wgt>
<wgt id='6011'>0.80777E+02</wgt>
<wgt id='6012'>0.81020E+02</wgt>
<wgt id='6013'>0.80494E+02</wgt>
<wgt id='6014'>0.80604E+02</wgt>
<wgt id='6015'>0.80233E+02</wgt>
<wgt id='6016'>0.81037E+02</wgt>
<wgt id='6017'>0.80604E+02</wgt>
<wgt id='6018'>0.80462E+02</wgt>
<wgt id='6019'>0.80835E+02</wgt>
<wgt id='6020'>0.80982E+02</wgt>
<wgt id='6021'>0.80742E+02</wgt>
<wgt id='6022'>0.80918E+02</wgt>
<wgt id='6023'>0.80803E+02</wgt>
<wgt id='6024'>0.80896E+02</wgt>
<wgt id='6025'>0.81150E+02</wgt>
<wgt id='6026'>0.80743E+02</wgt>
<wgt id='6027'>0.80825E+02</wgt>
<wgt id='6028'>0.80578E+02</wgt>
<wgt id='6029'>0.80691E+02</wgt>
<wgt id='6030'>0.80623E+02</wgt>
<wgt id='6031'>0.80604E+02</wgt>
<wgt id='6032'>0.80817E+02</wgt>
<wgt id='6033'>0.80743E+02</wgt>
<wgt id='6034'>0.81112E+02</wgt>
<wgt id='6035'>0.80867E+02</wgt>
<wgt id='6036'>0.81372E+02</wgt>
<wgt id='6037'>0.80821E+02</wgt>
<wgt id='6038'>0.80811E+02</wgt>
<wgt id='6039'>0.81003E+02</wgt>
<wgt id='6040'>0.80805E+02</wgt>
<wgt id='6041'>0.79242E+02</wgt>
<wgt id='6042'>0.81299E+02</wgt>
<wgt id='7000'>0.80771E+02</wgt>
<wgt id='7001'>0.79889E+02</wgt>
<wgt id='7002'>0.80059E+02</wgt>
<wgt id='7003'>0.79956E+02</wgt>
<wgt id='7004'>0.79992E+02</wgt>
<wgt id='7005'>0.80067E+02</wgt>
<wgt id='7006'>0.79881E+02</wgt>
<wgt id='7007'>0.80461E+02</wgt>
<wgt id='7008'>0.79501E+02</wgt>
<wgt id='7009'>0.79630E+02</wgt>
<wgt id='7010'>0.80330E+02</wgt>
<wgt id='7011'>0.80244E+02</wgt>
<wgt id='7012'>0.79709E+02</wgt>
<wgt id='7013'>0.79868E+02</wgt>
<wgt id='7014'>0.80074E+02</wgt>
<wgt id='7015'>0.79972E+02</wgt>
<wgt id='7016'>0.79772E+02</wgt>
<wgt id='7017'>0.79957E+02</wgt>
<wgt id='7018'>0.79996E+02</wgt>
<wgt id='7019'>0.79974E+02</wgt>
<wgt id='7020'>0.79986E+02</wgt>
<wgt id='7021'>0.80388E+02</wgt>
<wgt id='7022'>0.79557E+02</wgt>
<wgt id='7023'>0.79411E+02</wgt>
<wgt id='7024'>0.80547E+02</wgt>
<wgt id='7025'>0.78850E+02</wgt>
<wgt id='7026'>0.81032E+02</wgt>
<wgt id='7027'>0.79506E+02</wgt>
<wgt id='7028'>0.80501E+02</wgt>
<wgt id='8000'>0.81360E+02</wgt>
<wgt id='8001'>0.81351E+02</wgt>
<wgt id='8002'>0.81385E+02</wgt>
<wgt id='8003'>0.81362E+02</wgt>
<wgt id='8004'>0.81358E+02</wgt>
<wgt id='8005'>0.81208E+02</wgt>
<wgt id='8006'>0.81446E+02</wgt>
<wgt id='8007'>0.81520E+02</wgt>
<wgt id='8008'>0.81538E+02</wgt>
<wgt id='8009'>0.81698E+02</wgt>
<wgt id='8010'>0.81270E+02</wgt>
<wgt id='8011'>0.81379E+02</wgt>
<wgt id='8012'>0.81065E+02</wgt>
<wgt id='8013'>0.81200E+02</wgt>
<wgt id='8014'>0.81555E+02</wgt>
<wgt id='8015'>0.81312E+02</wgt>
<wgt id='8016'>0.81448E+02</wgt>
<wgt id='8017'>0.81430E+02</wgt>
<wgt id='8018'>0.81585E+02</wgt>
<wgt id='8019'>0.81362E+02</wgt>
<wgt id='8020'>0.81405E+02</wgt>
<wgt id='8021'>0.81268E+02</wgt>
<wgt id='8022'>0.81435E+02</wgt>
<wgt id='8023'>0.81216E+02</wgt>
<wgt id='8024'>0.81031E+02</wgt>
<wgt id='8025'>0.81221E+02</wgt>
<wgt id='8026'>0.81440E+02</wgt>
<wgt id='8027'>0.81435E+02</wgt>
<wgt id='8028'>0.81411E+02</wgt>
<wgt id='8029'>0.81697E+02</wgt>
<wgt id='3000'>0.81104E+02</wgt>
<wgt id='3001'>0.80585E+02</wgt>
<wgt id='3002'>0.79924E+02</wgt>
<wgt id='3003'>0.79876E+02</wgt>
<wgt id='3004'>0.82175E+02</wgt>
<wgt id='3005'>0.82032E+02</wgt>
<wgt id='3006'>0.82522E+02</wgt>
<wgt id='3007'>0.80127E+02</wgt>
<wgt id='3008'>0.80418E+02</wgt>
<wgt id='3009'>0.80922E+02</wgt>
<wgt id='3010'>0.83162E+02</wgt>
<wgt id='3011'>0.80967E+02</wgt>
<wgt id='3012'>0.81273E+02</wgt>
<wgt id='3013'>0.79845E+02</wgt>
<wgt id='3014'>0.80934E+02</wgt>
<wgt id='3015'>0.80501E+02</wgt>
<wgt id='3016'>0.81629E+02</wgt>
<wgt id='3017'>0.82708E+02</wgt>
<wgt id='3018'>0.80626E+02</wgt>
<wgt id='3019'>0.79943E+02</wgt>
<wgt id='3020'>0.80722E+02</wgt>
<wgt id='3021'>0.79079E+02</wgt>
<wgt id='3022'>0.79452E+02</wgt>
<wgt id='3023'>0.79914E+02</wgt>
<wgt id='3024'>0.81208E+02</wgt>
<wgt id='3025'>0.80216E+02</wgt>
<wgt id='3026'>0.80193E+02</wgt>
<wgt id='3027'>0.80537E+02</wgt>
<wgt id='3028'>0.80256E+02</wgt>
<wgt id='3029'>0.82172E+02</wgt>
<wgt id='3030'>0.81689E+02</wgt>
<wgt id='3031'>0.80622E+02</wgt>
<wgt id='3032'>0.80950E+02</wgt>
<wgt id='3033'>0.80553E+02</wgt>
<wgt id='3034'>0.82539E+02</wgt>
<wgt id='3035'>0.80128E+02</wgt>
<wgt id='3036'>0.80242E+02</wgt>
<wgt id='3037'>0.79430E+02</wgt>
<wgt id='3038'>0.81272E+02</wgt>
<wgt id='3039'>0.80204E+02</wgt>
<wgt id='3040'>0.81596E+02</wgt>
<wgt id='3041'>0.81969E+02</wgt>
<wgt id='3042'>0.81795E+02</wgt>
<wgt id='3043'>0.82053E+02</wgt>
<wgt id='3044'>0.82055E+02</wgt>
<wgt id='3045'>0.81765E+02</wgt>
<wgt id='3046'>0.81713E+02</wgt>
<wgt id='3047'>0.80272E+02</wgt>
<wgt id='3048'>0.81287E+02</wgt>
<wgt id='3049'>0.79745E+02</wgt>
<wgt id='3050'>0.80666E+02</wgt>
<wgt id='3051'>0.80492E+02</wgt>
<wgt id='3052'>0.79804E+02</wgt>
<wgt id='3053'>0.81429E+02</wgt>
<wgt id='3054'>0.79567E+02</wgt>
<wgt id='3055'>0.81171E+02</wgt>
<wgt id='3056'>0.81246E+02</wgt>
<wgt id='3057'>0.79942E+02</wgt>
<wgt id='3058'>0.81353E+02</wgt>
<wgt id='3059'>0.82012E+02</wgt>
<wgt id='3060'>0.80533E+02</wgt>
<wgt id='3061'>0.80581E+02</wgt>
<wgt id='3062'>0.80890E+02</wgt>
<wgt id='3063'>0.80594E+02</wgt>
<wgt id='3064'>0.82037E+02</wgt>
<wgt id='3065'>0.80170E+02</wgt>
<wgt id='3066'>0.82399E+02</wgt>
<wgt id='3067'>0.80000E+02</wgt>
<wgt id='3068'>0.81096E+02</wgt>
<wgt id='3069'>0.81248E+02</wgt>
<wgt id='3070'>0.81031E+02</wgt>
<wgt id='3071'>0.81290E+02</wgt>
<wgt id='3072'>0.79934E+02</wgt>
<wgt id='3073'>0.81874E+02</wgt>
<wgt id='3074'>0.80941E+02</wgt>
<wgt id='3075'>0.82122E+02</wgt>
<wgt id='3076'>0.82672E+02</wgt>
<wgt id='3077'>0.81683E+02</wgt>
<wgt id='3078'>0.79448E+02</wgt>
<wgt id='3079'>0.81101E+02</wgt>
<wgt id='3080'>0.82673E+02</wgt>
<wgt id='3081'>0.81181E+02</wgt>
<wgt id='3082'>0.81629E+02</wgt>
<wgt id='3083'>0.81810E+02</wgt>
<wgt id='3084'>0.81002E+02</wgt>
<wgt id='3085'>0.79501E+02</wgt>
<wgt id='3086'>0.81591E+02</wgt>
<wgt id='3087'>0.80923E+02</wgt>
<wgt id='3088'>0.82620E+02</wgt>
<wgt id='3089'>0.84642E+02</wgt>
<wgt id='3090'>0.82254E+02</wgt>
<wgt id='3091'>0.81310E+02</wgt>
<wgt id='3092'>0.82258E+02</wgt>
<wgt id='3093'>0.81787E+02</wgt>
<wgt id='3094'>0.81799E+02</wgt>
<wgt id='3095'>0.81121E+02</wgt>
<wgt id='3096'>0.80419E+02</wgt>
<wgt id='3097'>0.82808E+02</wgt>
<wgt id='3098'>0.82197E+02</wgt>
<wgt id='3099'>0.80391E+02</wgt>
<wgt id='3100'>0.80896E+02</wgt>
<wgt id='3200'>0.79116E+02</wgt>
<wgt id='3201'>0.79487E+02</wgt>
<wgt id='3202'>0.77674E+02</wgt>
<wgt id='3203'>0.79470E+02</wgt>
<wgt id='3204'>0.78315E+02</wgt>
<wgt id='3205'>0.79444E+02</wgt>
<wgt id='3206'>0.80105E+02</wgt>
<wgt id='3207'>0.80111E+02</wgt>
<wgt id='3208'>0.79606E+02</wgt>
<wgt id='3209'>0.78911E+02</wgt>
<wgt id='3210'>0.79163E+02</wgt>
<wgt id='3211'>0.79687E+02</wgt>
<wgt id='3212'>0.78891E+02</wgt>
<wgt id='3213'>0.79137E+02</wgt>
<wgt id='3214'>0.78717E+02</wgt>
<wgt id='3215'>0.79236E+02</wgt>
<wgt id='3216'>0.79920E+02</wgt>
<wgt id='3217'>0.79463E+02</wgt>
<wgt id='3218'>0.79724E+02</wgt>
<wgt id='3219'>0.79065E+02</wgt>
<wgt id='3220'>0.78486E+02</wgt>
<wgt id='3221'>0.79436E+02</wgt>
<wgt id='3222'>0.80145E+02</wgt>
<wgt id='3223'>0.79741E+02</wgt>
<wgt id='3224'>0.78902E+02</wgt>
<wgt id='3225'>0.80015E+02</wgt>
<wgt id='3226'>0.78770E+02</wgt>
<wgt id='3227'>0.78350E+02</wgt>
<wgt id='3228'>0.78227E+02</wgt>
<wgt id='3229'>0.79835E+02</wgt>
<wgt id='3230'>0.79532E+02</wgt>
<wgt id='3231'>0.79234E+02</wgt>
<wgt id='3232'>0.79426E+02</wgt>
<wgt id='3233'>0.79572E+02</wgt>
<wgt id='3234'>0.78482E+02</wgt>
<wgt id='3235'>0.79055E+02</wgt>
<wgt id='3236'>0.78637E+02</wgt>
<wgt id='3237'>0.79200E+02</wgt>
<wgt id='3238'>0.78308E+02</wgt>
<wgt id='3239'>0.78782E+02</wgt>
<wgt id='3240'>0.78326E+02</wgt>
<wgt id='3241'>0.80013E+02</wgt>
<wgt id='3242'>0.78735E+02</wgt>
<wgt id='3243'>0.78683E+02</wgt>
<wgt id='3244'>0.78924E+02</wgt>
<wgt id='3245'>0.79485E+02</wgt>
<wgt id='3246'>0.77736E+02</wgt>
<wgt id='3247'>0.78988E+02</wgt>
<wgt id='3248'>0.78710E+02</wgt>
<wgt id='3249'>0.78197E+02</wgt>
<wgt id='3250'>0.79433E+02</wgt>
<wgt id='3251'>0.78785E+02</wgt>
<wgt id='3252'>0.79565E+02</wgt>
<wgt id='3253'>0.78904E+02</wgt>
<wgt id='3254'>0.78913E+02</wgt>
<wgt id='3255'>0.78694E+02</wgt>
<wgt id='3256'>0.79269E+02</wgt>
<wgt id='3257'>0.79072E+02</wgt>
<wgt id='3258'>0.78947E+02</wgt>
<wgt id='3259'>0.78612E+02</wgt>
<wgt id='3260'>0.79078E+02</wgt>
<wgt id='3261'>0.79086E+02</wgt>
<wgt id='3262'>0.79379E+02</wgt>
<wgt id='3263'>0.80029E+02</wgt>
<wgt id='3264'>0.79077E+02</wgt>
<wgt id='3265'>0.79369E+02</wgt>
<wgt id='3266'>0.79200E+02</wgt>
<wgt id='3267'>0.78947E+02</wgt>
<wgt id='3268'>0.79056E+02</wgt>
<wgt id='3269'>0.79207E+02</wgt>
<wgt id='3270'>0.79933E+02</wgt>
<wgt id='3271'>0.79391E+02</wgt>
<wgt id='3272'>0.79448E+02</wgt>
<wgt id='3273'>0.78999E+02</wgt>
<wgt id='3274'>0.78626E+02</wgt>
<wgt id='3275'>0.79564E+02</wgt>
<wgt id='3276'>0.78509E+02</wgt>
<wgt id='3277'>0.78953E+02</wgt>
<wgt id='3278'>0.79345E+02</wgt>
<wgt id='3279'>0.79571E+02</wgt>
<wgt id='3280'>0.78923E+02</wgt>
<wgt id='3281'>0.79456E+02</wgt>
<wgt id='3282'>0.79340E+02</wgt>
<wgt id='3283'>0.79245E+02</wgt>
<wgt id='3284'>0.79094E+02</wgt>
<wgt id='3285'>0.78773E+02</wgt>
<wgt id='3286'>0.78320E+02</wgt>
<wgt id='3287'>0.79565E+02</wgt>
<wgt id='3288'>0.79128E+02</wgt>
<wgt id='3289'>0.80191E+02</wgt>
<wgt id='3290'>0.79075E+02</wgt>
<wgt id='3291'>0.77858E+02</wgt>
<wgt id='3292'>0.78859E+02</wgt>
<wgt id='3293'>0.79054E+02</wgt>
<wgt id='3294'>0.78401E+02</wgt>
<wgt id='3295'>0.78830E+02</wgt>
<wgt id='3296'>0.80071E+02</wgt>
<wgt id='3297'>0.78972E+02</wgt>
<wgt id='3298'>0.78529E+02</wgt>
<wgt id='3299'>0.79149E+02</wgt>
<wgt id='3300'>0.79739E+02</wgt>
<wgt id='3301'>0.77718E+02</wgt>
<wgt id='3302'>0.80256E+02</wgt>
<wgt id='3400'>0.78741E+02</wgt>
<wgt id='3401'>0.78805E+02</wgt>
<wgt id='3402'>0.77616E+02</wgt>
<wgt id='3403'>0.79475E+02</wgt>
<wgt id='3404'>0.80014E+02</wgt>
<wgt id='3405'>0.79228E+02</wgt>
<wgt id='3406'>0.79620E+02</wgt>
<wgt id='3407'>0.78581E+02</wgt>
<wgt id='3408'>0.79823E+02</wgt>
<wgt id='3409'>0.79676E+02</wgt>
<wgt id='3410'>0.79203E+02</wgt>
<wgt id='3411'>0.79806E+02</wgt>
<wgt id='3412'>0.79523E+02</wgt>
<wgt id='3413'>0.78641E+02</wgt>
<wgt id='3414'>0.78123E+02</wgt>
<wgt id='3415'>0.78502E+02</wgt>
<wgt id='3416'>0.78229E+02</wgt>
<wgt id='3417'>0.78977E+02</wgt>
<wgt id='3418'>0.78018E+02</wgt>
<wgt id='3419'>0.78103E+02</wgt>
<wgt id='3420'>0.78528E+02</wgt>
<wgt id='3421'>0.78543E+02</wgt>
<wgt id='3422'>0.78848E+02</wgt>
<wgt id='3423'>0.79374E+02</wgt>
<wgt id='3424'>0.79320E+02</wgt>
<wgt id='3425'>0.78497E+02</wgt>
<wgt id='3426'>0.78494E+02</wgt>
<wgt id='3427'>0.78287E+02</wgt>
<wgt id='3428'>0.79408E+02</wgt>
<wgt id='3429'>0.78038E+02</wgt>
<wgt id='3430'>0.78834E+02</wgt>
<wgt id='3431'>0.78895E+02</wgt>
<wgt id='3432'>0.79314E+02</wgt>
<wgt id='3433'>0.77990E+02</wgt>
<wgt id='3434'>0.79283E+02</wgt>
<wgt id='3435'>0.79352E+02</wgt>
<wgt id='3436'>0.78547E+02</wgt>
<wgt id='3437'>0.79210E+02</wgt>
<wgt id='3438'>0.78013E+02</wgt>
<wgt id='3439'>0.78153E+02</wgt>
<wgt id='3440'>0.78923E+02</wgt>
<wgt id='3441'>0.78668E+02</wgt>
<wgt id='3442'>0.77561E+02</wgt>
<wgt id='3443'>0.78929E+02</wgt>
<wgt id='3444'>0.78220E+02</wgt>
<wgt id='3445'>0.78383E+02</wgt>
<wgt id='3446'>0.78932E+02</wgt>
<wgt id='3447'>0.79192E+02</wgt>
<wgt id='3448'>0.79888E+02</wgt>
<wgt id='3449'>0.79413E+02</wgt>
<wgt id='3450'>0.78613E+02</wgt>
<wgt id='3451'>0.79551E+02</wgt>
<wgt id='3452'>0.78576E+02</wgt>
<wgt id='3453'>0.77666E+02</wgt>
<wgt id='3454'>0.78419E+02</wgt>
<wgt id='3455'>0.79458E+02</wgt>
<wgt id='3456'>0.78843E+02</wgt>
<wgt id='3457'>0.79533E+02</wgt>
<wgt id='3458'>0.78602E+02</wgt>
<wgt id='3459'>0.78680E+02</wgt>
<wgt id='3460'>0.78549E+02</wgt>
<wgt id='3461'>0.77837E+02</wgt>
<wgt id='3462'>0.78803E+02</wgt>
<wgt id='3463'>0.77765E+02</wgt>
<wgt id='3464'>0.79131E+02</wgt>
<wgt id='3465'>0.79226E+02</wgt>
<wgt id='3466'>0.79095E+02</wgt>
<wgt id='3467'>0.78365E+02</wgt>
<wgt id='3468'>0.78215E+02</wgt>
<wgt id='3469'>0.78326E+02</wgt>
<wgt id='3470'>0.78382E+02</wgt>
<wgt id='3471'>0.78483E+02</wgt>
<wgt id='3472'>0.77753E+02</wgt>
<wgt id='3473'>0.79724E+02</wgt>
<wgt id='3474'>0.78345E+02</wgt>
<wgt id='3475'>0.79074E+02</wgt>
<wgt id='3476'>0.78661E+02</wgt>
<wgt id='3477'>0.78071E+02</wgt>
<wgt id='3478'>0.79698E+02</wgt>
<wgt id='3479'>0.78935E+02</wgt>
<wgt id='3480'>0.78790E+02</wgt>
<wgt id='3481'>0.79224E+02</wgt>
<wgt id='3482'>0.78911E+02</wgt>
<wgt id='3483'>0.78225E+02</wgt>
<wgt id='3484'>0.78271E+02</wgt>
<wgt id='3485'>0.78324E+02</wgt>
<wgt id='3486'>0.77034E+02</wgt>
<wgt id='3487'>0.78694E+02</wgt>
<wgt id='3488'>0.78978E+02</wgt>
<wgt id='3489'>0.77819E+02</wgt>
<wgt id='3490'>0.79469E+02</wgt>
<wgt id='3491'>0.79472E+02</wgt>
<wgt id='3492'>0.78663E+02</wgt>
<wgt id='3493'>0.79117E+02</wgt>
<wgt id='3494'>0.76757E+02</wgt>
<wgt id='3495'>0.79006E+02</wgt>
<wgt id='3496'>0.77888E+02</wgt>
<wgt id='3497'>0.78395E+02</wgt>
<wgt id='3498'>0.79467E+02</wgt>
<wgt id='3499'>0.78431E+02</wgt>
<wgt id='3500'>0.79706E+02</wgt>
</rwgt>
</event>
<event>
     13 322200  8.11039E+01  1.46618E+02 -1.00000E+00  1.15379E-01
      21    -1     0     0   504   505  0.000000000E+00  0.000000000E+00  3.864202918E+02  3.864202918E+02  0.000000000E+00  0.00000E+00  9.000E+00
      21    -1     0     0   503   504  0.000000000E+00  0.000000000E+00 -5.032534825E+02  5.032534825E+02  0.000000000E+00  0.00000E+00  9.000E+00
       6     2     1     2   502     0  1.099137906E+02 -5.526730355E+01  1.940965158E+01  2.116735396E+02  1.711532546E+02  0.00000E+00  9.000E+00
      -6     2     1     2     0   505 -1.274308060E+02 -9.030022694E+01  2.025904460E+02  3.088055043E+02  1.729890441E+02  0.00000E+00  9.000E+00
      21     1     1     2   503   502  1.751701535E+01  1.455675305E+02 -3.388332883E+02  3.691947305E+02  6.607249480E-06  0.00000E+00  9.000E+00
      24     2     3     3     0     0  3.530027384E+01 -7.377886849E+01  5.439790577E+01  1.270589046E+02  8.059405878E+01  0.00000E+00  9.000E+00
       5     1     3     3   502     0  7.461351676E+01  1.851156494E+01 -3.498825419E+01  8.461463497E+01  5.060000000E+00  0.00000E+00 -1.000E+00
     -24     2     4     4     0     0 -1.198703785E+02 -8.593674383E+01  8.070742413E+01  1.865055669E+02  8.072550164E+01  0.00000E+00  9.000E+00
      -5     1     4     4     0   505 -7.560427493E+00 -4.363483105E+00  1.218830219E+02  1.222999374E+02  5.060000000E+00  0.00000E+00  1.000E+00
     -11     1     6     6     0     0  3.978406688E+01 -4.670302428E+01 -5.073485515E+00  6.156041512E+01  5.100000000E-04  0.00000E+00  1.000E+00
      12     1     6     6     0     0 -4.483793040E+00 -2.707584422E+01  5.947139128E+01  6.549848946E+01  0.000000000E+00  0.00000E+00 -1.000E+00
      11     1     8     8     0     0 -9.771876823E+01 -5.052338754E+01  9.180914831E+01  1.432846470E+02  5.100000000E-04  0.00000E+00 -1.000E+00
     -12     1     8     8     0     0 -2.215161023E+01 -3.541335629E+01 -1.110172418E+01  4.322091993E+01  0.000000000E+00  0.00000E+00  1.000E+00
#rwgt            1           1   689.48444194035812               10        9283           0
<rwgt>
<wgt id='1001'>0.81104E+02</wgt>
<wgt id='1002'>0.81333E+02</wgt>
<wgt id='1003'>0.80597E+02</wgt>
<wgt id='1004'>0.69388E+02</wgt>
<wgt id='1005'>0.69209E+02</wgt>
<wgt id='1006'>0.69351E+02</wgt>
<wgt id='1007'>0.96099E+02</wgt>
<wgt id='1008'>0.97020E+02</wgt>
<wgt id='1009'>0.94810E+02</wgt>
<wgt id='2000'>0.81104E+02</wgt>
<wgt id='2001'>0.81226E+02</wgt>
<wgt id='2002'>0.80880E+02</wgt>
<wgt id='2003'>0.81025E+02</wgt>
<wgt id='2004'>0.81296E+02</wgt>
<wgt id='2005'>0.81220E+02</wgt>
<wgt id='2006'>0.81303E+02</wgt>
<wgt id='2007'>0.81361E+02</wgt>
<wgt id='2008'>0.81586E+02</wgt>
<wgt id='2009'>0.80978E+02</wgt>
<wgt id='2010'>0.81073E+02</wgt>
<wgt id='2011'>0.80666E+02</wgt>
<wgt id='2012'>0.81317E+02</wgt>
<wgt id='2013'>0.81201E+02</wgt>
<wgt id='2014'>0.81355E+02</wgt>
<wgt id='2015'>0.81276E+02</wgt>
<wgt id='2016'>0.81094E+02</wgt>
<wgt id='2017'>0.81056E+02</wgt>
<wgt id='2018'>0.81076E+02</wgt>
<wgt id='2019'>0.81463E+02</wgt>
<wgt id='2020'>0.80877E+02</wgt>
<wgt id='2021'>0.81081E+02</wgt>
<wgt id='2022'>0.80984E+02</wgt>
<wgt id='2023'>0.81075E+02</wgt>
<wgt id='2024'>0.81080E+02</wgt>
<wgt id='2025'>0.81056E+02</wgt>
<wgt id='2026'>0.81050E+02</wgt>
<wgt id='2027'>0.80832E+02</wgt>
<wgt id='2028'>0.81222E+02</wgt>
<wgt id='2029'>0.80812E+02</wgt>
<wgt id='2030'>0.81044E+02</wgt>
<wgt id='2031'>0.80851E+02</wgt>
<wgt id='2032'>0.81130E+02</wgt>
<wgt id='2033'>0.81026E+02</wgt>
<wgt id='2034'>0.80993E+02</wgt>
<wgt id='2035'>0.81111E+02</wgt>
<wgt id='2036'>0.81281E+02</wgt>
<wgt id='2037'>0.81099E+02</wgt>
<wgt id='2038'>0.81074E+02</wgt>
<wgt id='2039'>0.81123E+02</wgt>
<wgt id='2040'>0.81041E+02</wgt>
<wgt id='2041'>0.81107E+02</wgt>
<wgt id='2042'>0.81113E+02</wgt>
<wgt id='2043'>0.81063E+02</wgt>
<wgt id='2044'>0.81154E+02</wgt>
<wgt id='2045'>0.81147E+02</wgt>
<wgt id='2046'>0.81122E+02</wgt>
<wgt id='2047'>0.81079E+02</wgt>
<wgt id='2048'>0.81066E+02</wgt>
<wgt id='2049'>0.81042E+02</wgt>
<wgt id='2050'>0.81064E+02</wgt>
<wgt id='2051'>0.81094E+02</wgt>
<wgt id='2052'>0.81177E+02</wgt>
<wgt id='2053'>0.81094E+02</wgt>
<wgt id='2054'>0.81102E+02</wgt>
<wgt id='2055'>0.81113E+02</wgt>
<wgt id='2056'>0.81078E+02</wgt>
<wgt id='2057'>0.81132E+02</wgt>
<wgt id='2058'>0.81118E+02</wgt>
<wgt id='2059'>0.81120E+02</wgt>
<wgt id='2060'>0.81105E+02</wgt>
<wgt id='2061'>0.81093E+02</wgt>
<wgt id='2062'>0.81166E+02</wgt>
<wgt id='2063'>0.81124E+02</wgt>
<wgt id='2064'>0.81122E+02</wgt>
<wgt id='2065'>0.81170E+02</wgt>
<wgt id='2066'>0.81103E+02</wgt>
<wgt id='2067'>0.81127E+02</wgt>
<wgt id='2068'>0.81112E+02</wgt>
<wgt id='2069'>0.81115E+02</wgt>
<wgt id='2070'>0.81112E+02</wgt>
<wgt id='2071'>0.81105E+02</wgt>
<wgt id='2072'>0.81107E+02</wgt>
<wgt id='2073'>0.81119E+02</wgt>
<wgt id='2074'>0.81091E+02</wgt>
<wgt id='2075'>0.81090E+02</wgt>
<wgt id='2076'>0.81099E+02</wgt>
<wgt id='2077'>0.81144E+02</wgt>
<wgt id='2078'>0.81115E+02</wgt>
<wgt id='2079'>0.81085E+02</wgt>
<wgt id='2080'>0.81106E+02</wgt>
<wgt id='2081'>0.81094E+02</wgt>
<wgt id='2082'>0.81116E+02</wgt>
<wgt id='2083'>0.81130E+02</wgt>
<wgt id='2084'>0.81114E+02</wgt>
<wgt id='2085'>0.81104E+02</wgt>
<wgt id='2086'>0.81094E+02</wgt>
<wgt id='2087'>0.81113E+02</wgt>
<wgt id='2088'>0.81101E+02</wgt>
<wgt id='2089'>0.81097E+02</wgt>
<wgt id='2090'>0.81118E+02</wgt>
<wgt id='2091'>0.81104E+02</wgt>
<wgt id='2092'>0.81118E+02</wgt>
<wgt id='2093'>0.81092E+02</wgt>
<wgt id='2094'>0.81106E+02</wgt>
<wgt id='2095'>0.81114E+02</wgt>
<wgt id='2096'>0.81096E+02</wgt>
<wgt id='2097'>0.81113E+02</wgt>
<wgt id='2098'>0.81102E+02</wgt>
<wgt id='2099'>0.81115E+02</wgt>
<wgt id='2100'>0.81104E+02</wgt>
<wgt id='2101'>0.78834E+02</wgt>
<wgt id='2102'>0.83273E+02</wgt>
<wgt id='2200'>0.81147E+02</wgt>
<wgt id='2201'>0.70924E+02</wgt>
<wgt id='2202'>0.72799E+02</wgt>
<wgt id='2203'>0.75098E+02</wgt>
<wgt id='2204'>0.77227E+02</wgt>
<wgt id='2205'>0.80244E+02</wgt>
<wgt id='2206'>0.82373E+02</wgt>
<wgt id='2207'>0.85024E+02</wgt>
<wgt id='2208'>0.87119E+02</wgt>
<wgt id='2300'>0.84646E+02</wgt>
<wgt id='2301'>0.84774E+02</wgt>
<wgt id='2302'>0.84565E+02</wgt>
<wgt id='2303'>0.84773E+02</wgt>
<wgt id='2304'>0.84831E+02</wgt>
<wgt id='2305'>0.84914E+02</wgt>
<wgt id='2306'>0.84649E+02</wgt>
<wgt id='2307'>0.84915E+02</wgt>
<wgt id='2308'>0.84540E+02</wgt>
<wgt id='2309'>0.84882E+02</wgt>
<wgt id='2310'>0.84457E+02</wgt>
<wgt id='2311'>0.84549E+02</wgt>
<wgt id='2312'>0.84909E+02</wgt>
<wgt id='2313'>0.84524E+02</wgt>
<wgt id='2314'>0.84871E+02</wgt>
<wgt id='2315'>0.84588E+02</wgt>
<wgt id='2316'>0.84701E+02</wgt>
<wgt id='2317'>0.84870E+02</wgt>
<wgt id='2318'>0.84876E+02</wgt>
<wgt id='2319'>0.84359E+02</wgt>
<wgt id='2320'>0.84402E+02</wgt>
<wgt id='2321'>0.84309E+02</wgt>
<wgt id='2322'>0.84625E+02</wgt>
<wgt id='2323'>0.84447E+02</wgt>
<wgt id='2324'>0.84379E+02</wgt>
<wgt id='2325'>0.84673E+02</wgt>
<wgt id='2326'>0.84814E+02</wgt>
<wgt id='2327'>0.84673E+02</wgt>
<wgt id='2328'>0.84334E+02</wgt>
<wgt id='2329'>0.84511E+02</wgt>
<wgt id='2330'>0.84861E+02</wgt>
<wgt id='2331'>0.84748E+02</wgt>
<wgt id='2332'>0.84747E+02</wgt>
<wgt id='2333'>0.84795E+02</wgt>
<wgt id='2334'>0.84699E+02</wgt>
<wgt id='2335'>0.84809E+02</wgt>
<wgt id='2336'>0.84690E+02</wgt>
<wgt id='2337'>0.84645E+02</wgt>
<wgt id='2338'>0.84652E+02</wgt>
<wgt id='2339'>0.84606E+02</wgt>
<wgt id='2340'>0.84643E+02</wgt>
<wgt id='2341'>0.84694E+02</wgt>
<wgt id='2342'>0.84555E+02</wgt>
<wgt id='2343'>0.84562E+02</wgt>
<wgt id='2344'>0.84661E+02</wgt>
<wgt id='2345'>0.84705E+02</wgt>
<wgt id='2346'>0.84708E+02</wgt>
<wgt id='2347'>0.84643E+02</wgt>
<wgt id='2348'>0.84689E+02</wgt>
<wgt id='2349'>0.84634E+02</wgt>
<wgt id='2350'>0.84632E+02</wgt>
<wgt id='2351'>0.84730E+02</wgt>
<wgt id='2352'>0.84606E+02</wgt>
<wgt id='2353'>0.84612E+02</wgt>
<wgt id='2354'>0.84638E+02</wgt>
<wgt id='2355'>0.84583E+02</wgt>
<wgt id='2356'>0.84654E+02</wgt>
<wgt id='2357'>0.84611E+02</wgt>
<wgt id='2358'>0.84606E+02</wgt>
<wgt id='2359'>0.84638E+02</wgt>
<wgt id='2360'>0.84662E+02</wgt>
<wgt id='2361'>0.84640E+02</wgt>
<wgt id='2362'>0.84659E+02</wgt>
<wgt id='2363'>0.84682E+02</wgt>
<wgt id='2364'>0.84626E+02</wgt>
<wgt id='2365'>0.84643E+02</wgt>
<wgt id='2366'>0.84656E+02</wgt>
<wgt id='2367'>0.84619E+02</wgt>
<wgt id='2368'>0.84656E+02</wgt>
<wgt id='2369'>0.84634E+02</wgt>
<wgt id='2370'>0.84663E+02</wgt>
<wgt id='2371'>0.84641E+02</wgt>
<wgt id='2372'>0.84641E+02</wgt>
<wgt id='2373'>0.84613E+02</wgt>
<wgt id='2374'>0.84689E+02</wgt>
<wgt id='2375'>0.84636E+02</wgt>
<wgt id='2376'>0.84651E+02</wgt>
<wgt id='2377'>0.84663E+02</wgt>
<wgt id='2378'>0.84657E+02</wgt>
<wgt id='2379'>0.84637E+02</wgt>
<wgt id='2380'>0.84632E+02</wgt>
<wgt id='2381'>0.84643E+02</wgt>
<wgt id='2382'>0.84627E+02</wgt>
<wgt id='2383'>0.84660E+02</wgt>
<wgt id='2384'>0.84647E+02</wgt>
<wgt id='2385'>0.84654E+02</wgt>
<wgt id='2386'>0.84638E+02</wgt>
<wgt id='2387'>0.84639E+02</wgt>
<wgt id='2388'>0.84643E+02</wgt>
<wgt id='2389'>0.84649E+02</wgt>
<wgt id='2390'>0.84649E+02</wgt>
<wgt id='2391'>0.84643E+02</wgt>
<wgt id='2392'>0.84648E+02</wgt>
<wgt id='2393'>0.84649E+02</wgt>
<wgt id='2394'>0.84659E+02</wgt>
<wgt id='2395'>0.84646E+02</wgt>
<wgt id='2396'>0.84634E+02</wgt>
<wgt id='2397'>0.84632E+02</wgt>
<wgt id='2398'>0.84640E+02</wgt>
<wgt id='2399'>0.84655E+02</wgt>
<wgt id='2400'>0.84649E+02</wgt>
<wgt id='2401'>0.82384E+02</wgt>
<wgt id='2402'>0.86982E+02</wgt>
<wgt id='2500'>0.80868E+02</wgt>
<wgt id='2501'>0.85344E+02</wgt>
<wgt id='2600'>0.78655E+02</wgt>
<wgt id='2601'>0.78631E+02</wgt>
<wgt id='2602'>0.78629E+02</wgt>
<wgt id='2603'>0.78614E+02</wgt>
<wgt id='2604'>0.78774E+02</wgt>
<wgt id='2605'>0.78535E+02</wgt>
<wgt id='2606'>0.78424E+02</wgt>
<wgt id='2607'>0.78836E+02</wgt>
<wgt id='2608'>0.78544E+02</wgt>
<wgt id='2609'>0.78606E+02</wgt>
<wgt id='2610'>0.78613E+02</wgt>
<wgt id='2611'>0.78584E+02</wgt>
<wgt id='2612'>0.78990E+02</wgt>
<wgt id='2613'>0.78624E+02</wgt>
<wgt id='2614'>0.78646E+02</wgt>
<wgt id='2615'>0.78550E+02</wgt>
<wgt id='2616'>0.78629E+02</wgt>
<wgt id='2617'>0.78555E+02</wgt>
<wgt id='2618'>0.78485E+02</wgt>
<wgt id='2619'>0.78692E+02</wgt>
<wgt id='2620'>0.78686E+02</wgt>
<wgt id='2621'>0.78627E+02</wgt>
<wgt id='2622'>0.78689E+02</wgt>
<wgt id='2623'>0.78653E+02</wgt>
<wgt id='2624'>0.78664E+02</wgt>
<wgt id='2625'>0.78609E+02</wgt>
<wgt id='2626'>0.78648E+02</wgt>
<wgt id='2627'>0.78625E+02</wgt>
<wgt id='2628'>0.78666E+02</wgt>
<wgt id='2629'>0.78653E+02</wgt>
<wgt id='2630'>0.78641E+02</wgt>
<wgt id='2631'>0.78662E+02</wgt>
<wgt id='2632'>0.78655E+02</wgt>
<wgt id='2633'>0.78657E+02</wgt>
<wgt id='2634'>0.78669E+02</wgt>
<wgt id='2635'>0.78648E+02</wgt>
<wgt id='2636'>0.78650E+02</wgt>
<wgt id='2637'>0.78650E+02</wgt>
<wgt id='2638'>0.78655E+02</wgt>
<wgt id='2639'>0.78654E+02</wgt>
<wgt id='2640'>0.78659E+02</wgt>
<wgt id='2641'>0.78652E+02</wgt>
<wgt id='2642'>0.78654E+02</wgt>
<wgt id='2643'>0.78660E+02</wgt>
<wgt id='2644'>0.78653E+02</wgt>
<wgt id='2645'>0.78653E+02</wgt>
<wgt id='2646'>0.78644E+02</wgt>
<wgt id='2647'>0.78659E+02</wgt>
<wgt id='2648'>0.78658E+02</wgt>
<wgt id='2649'>0.78659E+02</wgt>
<wgt id='2650'>0.78655E+02</wgt>
<wgt id='2651'>0.77252E+02</wgt>
<wgt id='2652'>0.79975E+02</wgt>
<wgt id='2700'>0.75899E+02</wgt>
<wgt id='2701'>0.77252E+02</wgt>
<wgt id='2702'>0.77991E+02</wgt>
<wgt id='2703'>0.79222E+02</wgt>
<wgt id='2704'>0.79975E+02</wgt>
<wgt id='2705'>0.81207E+02</wgt>
<wgt id='2800'>0.79932E+02</wgt>
<wgt id='4000'>0.79264E+02</wgt>
<wgt id='4001'>0.79613E+02</wgt>
<wgt id='4002'>0.79107E+02</wgt>
<wgt id='4003'>0.79932E+02</wgt>
<wgt id='4004'>0.78415E+02</wgt>
<wgt id='4005'>0.78780E+02</wgt>
<wgt id='4006'>0.79637E+02</wgt>
<wgt id='4007'>0.80286E+02</wgt>
<wgt id='4008'>0.78236E+02</wgt>
<wgt id='4009'>0.79849E+02</wgt>
<wgt id='4010'>0.78828E+02</wgt>
<wgt id='4011'>0.79497E+02</wgt>
<wgt id='4012'>0.79024E+02</wgt>
<wgt id='4013'>0.79785E+02</wgt>
<wgt id='4014'>0.78783E+02</wgt>
<wgt id='4015'>0.79002E+02</wgt>
<wgt id='4016'>0.79187E+02</wgt>
<wgt id='4017'>0.79157E+02</wgt>
<wgt id='4018'>0.79411E+02</wgt>
<wgt id='4019'>0.79842E+02</wgt>
<wgt id='4020'>0.78335E+02</wgt>
<wgt id='4021'>0.79280E+02</wgt>
<wgt id='4022'>0.79205E+02</wgt>
<wgt id='4023'>0.78805E+02</wgt>
<wgt id='4024'>0.79611E+02</wgt>
<wgt id='4025'>0.79541E+02</wgt>
<wgt id='4026'>0.78532E+02</wgt>
<wgt id='4027'>0.79005E+02</wgt>
<wgt id='4028'>0.79483E+02</wgt>
<wgt id='4029'>0.78185E+02</wgt>
<wgt id='4030'>0.79662E+02</wgt>
<wgt id='4031'>0.79257E+02</wgt>
<wgt id='4032'>0.78606E+02</wgt>
<wgt id='4033'>0.78963E+02</wgt>
<wgt id='4034'>0.79380E+02</wgt>
<wgt id='4035'>0.80093E+02</wgt>
<wgt id='4036'>0.78583E+02</wgt>
<wgt id='4037'>0.80185E+02</wgt>
<wgt id='4038'>0.78419E+02</wgt>
<wgt id='4039'>0.80377E+02</wgt>
<wgt id='4040'>0.78061E+02</wgt>
<wgt id='4041'>0.79083E+02</wgt>
<wgt id='4042'>0.79358E+02</wgt>
<wgt id='4043'>0.78204E+02</wgt>
<wgt id='4044'>0.79801E+02</wgt>
<wgt id='4045'>0.81173E+02</wgt>
<wgt id='4046'>0.78348E+02</wgt>
<wgt id='4047'>0.78049E+02</wgt>
<wgt id='4048'>0.79696E+02</wgt>
<wgt id='4049'>0.79044E+02</wgt>
<wgt id='4050'>0.79392E+02</wgt>
<wgt id='4051'>0.80518E+02</wgt>
<wgt id='4052'>0.78036E+02</wgt>
<wgt id='4053'>0.80198E+02</wgt>
<wgt id='4054'>0.78109E+02</wgt>
<wgt id='4055'>0.79622E+02</wgt>
<wgt id='4056'>0.78794E+02</wgt>
<wgt id='4057'>0.78498E+02</wgt>
<wgt id='4058'>0.79789E+02</wgt>
<wgt id='4100'>0.80153E+02</wgt>
<wgt id='4101'>0.79737E+02</wgt>
<wgt id='4102'>0.78751E+02</wgt>
<wgt id='4103'>0.78206E+02</wgt>
<wgt id='4200'>0.76104E+02</wgt>
<wgt id='4201'>0.76247E+02</wgt>
<wgt id='4202'>0.76158E+02</wgt>
<wgt id='4203'>0.75525E+02</wgt>
<wgt id='4204'>0.76591E+02</wgt>
<wgt id='4205'>0.76081E+02</wgt>
<wgt id='4206'>0.76186E+02</wgt>
<wgt id='4207'>0.75833E+02</wgt>
<wgt id='4208'>0.76324E+02</wgt>
<wgt id='4209'>0.76246E+02</wgt>
<wgt id='4210'>0.76100E+02</wgt>
<wgt id='4211'>0.77086E+02</wgt>
<wgt id='4212'>0.75317E+02</wgt>
<wgt id='4213'>0.76227E+02</wgt>
<wgt id='4214'>0.75907E+02</wgt>
<wgt id='4215'>0.76267E+02</wgt>
<wgt id='4216'>0.75588E+02</wgt>
<wgt id='4217'>0.75718E+02</wgt>
<wgt id='4218'>0.76396E+02</wgt>
<wgt id='4219'>0.75042E+02</wgt>
<wgt id='4220'>0.77037E+02</wgt>
<wgt id='4221'>0.75506E+02</wgt>
<wgt id='4222'>0.76719E+02</wgt>
<wgt id='4223'>0.76852E+02</wgt>
<wgt id='4224'>0.75382E+02</wgt>
<wgt id='4225'>0.74567E+02</wgt>
<wgt id='4226'>0.77433E+02</wgt>
<wgt id='4227'>0.76492E+02</wgt>
<wgt id='4228'>0.75767E+02</wgt>
<wgt id='4229'>0.75755E+02</wgt>
<wgt id='4230'>0.76298E+02</wgt>
<wgt id='4231'>0.76006E+02</wgt>
<wgt id='4232'>0.76187E+02</wgt>
<wgt id='4233'>0.76372E+02</wgt>
<wgt id='4234'>0.75751E+02</wgt>
<wgt id='4235'>0.76426E+02</wgt>
<wgt id='4236'>0.75827E+02</wgt>
<wgt id='4237'>0.76033E+02</wgt>
<wgt id='4238'>0.76067E+02</wgt>
<wgt id='4239'>0.77072E+02</wgt>
<wgt id='4240'>0.74526E+02</wgt>
<wgt id='4241'>0.75600E+02</wgt>
<wgt id='4242'>0.76654E+02</wgt>
<wgt id='4243'>0.76088E+02</wgt>
<wgt id='4244'>0.76230E+02</wgt>
<wgt id='4245'>0.75159E+02</wgt>
<wgt id='4246'>0.77071E+02</wgt>
<wgt id='4247'>0.75833E+02</wgt>
<wgt id='4248'>0.76254E+02</wgt>
<wgt id='4249'>0.77151E+02</wgt>
<wgt id='4250'>0.74847E+02</wgt>
<wgt id='4251'>0.74952E+02</wgt>
<wgt id='4252'>0.76746E+02</wgt>
<wgt id='4253'>0.75619E+02</wgt>
<wgt id='4254'>0.76476E+02</wgt>
<wgt id='4255'>0.76126E+02</wgt>
<wgt id='4256'>0.75955E+02</wgt>
<wgt id='4257'>0.74677E+02</wgt>
<wgt id='4258'>0.76519E+02</wgt>
<wgt id='4300'>0.78462E+02</wgt>
<wgt id='4301'>0.77453E+02</wgt>
<wgt id='5000'>0.78884E+02</wgt>
<wgt id='5001'>0.78916E+02</wgt>
<wgt id='5002'>0.78842E+02</wgt>
<wgt id='5003'>0.78903E+02</wgt>
<wgt id='5004'>0.78866E+02</wgt>
<wgt id='5005'>0.78881E+02</wgt>
<wgt id='5006'>0.78887E+02</wgt>
<wgt id='5007'>0.78935E+02</wgt>
<wgt id='5008'>0.78841E+02</wgt>
<wgt id='5009'>0.78989E+02</wgt>
<wgt id='5010'>0.78775E+02</wgt>
<wgt id='5011'>0.79042E+02</wgt>
<wgt id='5012'>0.78731E+02</wgt>
<wgt id='5013'>0.78990E+02</wgt>
<wgt id='5014'>0.78808E+02</wgt>
<wgt id='5015'>0.78496E+02</wgt>
<wgt id='5016'>0.78496E+02</wgt>
<wgt id='5017'>0.79341E+02</wgt>
<wgt id='5018'>0.78575E+02</wgt>
<wgt id='5019'>0.79204E+02</wgt>
<wgt id='5020'>0.78445E+02</wgt>
<wgt id='5021'>0.78982E+02</wgt>
<wgt id='5022'>0.78730E+02</wgt>
<wgt id='5023'>0.78779E+02</wgt>
<wgt id='5024'>0.79134E+02</wgt>
<wgt id='5025'>0.78549E+02</wgt>
<wgt id='5026'>0.79261E+02</wgt>
<wgt id='5027'>0.78913E+02</wgt>
<wgt id='5028'>0.78804E+02</wgt>
<wgt id='5029'>0.79427E+02</wgt>
<wgt id='5030'>0.78574E+02</wgt>
<wgt id='5031'>0.78632E+02</wgt>
<wgt id='5032'>0.79639E+02</wgt>
<wgt id='5033'>0.78899E+02</wgt>
<wgt id='5034'>0.78867E+02</wgt>
<wgt id='5035'>0.78884E+02</wgt>
<wgt id='5036'>0.78885E+02</wgt>
<wgt id='5037'>0.78814E+02</wgt>
<wgt id='5038'>0.78924E+02</wgt>
<wgt id='5039'>0.79094E+02</wgt>
<wgt id='5040'>0.78367E+02</wgt>
<wgt id='5041'>0.79228E+02</wgt>
<wgt id='5042'>0.78541E+02</wgt>
<wgt id='5043'>0.78962E+02</wgt>
<wgt id='5044'>0.78861E+02</wgt>
<wgt id='5045'>0.78726E+02</wgt>
<wgt id='5046'>0.79059E+02</wgt>
<wgt id='5047'>0.78912E+02</wgt>
<wgt id='5048'>0.78760E+02</wgt>
<wgt id='5049'>0.78857E+02</wgt>
<wgt id='5050'>0.78934E+02</wgt>
<wgt id='5051'>0.78999E+02</wgt>
<wgt id='5052'>0.78769E+02</wgt>
<wgt id='5053'>0.78704E+02</wgt>
<wgt id='5054'>0.79007E+02</wgt>
<wgt id='5055'>0.78954E+02</wgt>
<wgt id='5056'>0.78894E+02</wgt>
<wgt id='5057'>0.78655E+02</wgt>
<wgt id='5058'>0.79043E+02</wgt>
<wgt id='5059'>0.78877E+02</wgt>
<wgt id='5060'>0.78898E+02</wgt>
<wgt id='5061'>0.79091E+02</wgt>
<wgt id='5062'>0.78885E+02</wgt>
<wgt id='5063'>0.79141E+02</wgt>
<wgt id='5064'>0.78826E+02</wgt>
<wgt id='5100'>0.78884E+02</wgt>
<wgt id='5101'>0.78917E+02</wgt>
<wgt id='6000'>0.79207E+02</wgt>
<wgt id='6001'>0.79391E+02</wgt>
<wgt id='6002'>0.79387E+02</wgt>
<wgt id='6003'>0.79192E+02</wgt>
<wgt id='6004'>0.79123E+02</wgt>
<wgt id='6005'>0.79132E+02</wgt>
<wgt id='6006'>0.79478E+02</wgt>
<wgt id='6007'>0.79114E+02</wgt>
<wgt id='6008'>0.78278E+02</wgt>
<wgt id='6009'>0.79506E+02</wgt>
<wgt id='6010'>0.78157E+02</wgt>
<wgt id='6011'>0.79172E+02</wgt>
<wgt id='6012'>0.79458E+02</wgt>
<wgt id='6013'>0.79009E+02</wgt>
<wgt id='6014'>0.79171E+02</wgt>
<wgt id='6015'>0.78735E+02</wgt>
<wgt id='6016'>0.79245E+02</wgt>
<wgt id='6017'>0.79245E+02</wgt>
<wgt id='6018'>0.79116E+02</wgt>
<wgt id='6019'>0.79246E+02</wgt>
<wgt id='6020'>0.79380E+02</wgt>
<wgt id='6021'>0.79291E+02</wgt>
<wgt id='6022'>0.79194E+02</wgt>
<wgt id='6023'>0.79243E+02</wgt>
<wgt id='6024'>0.79273E+02</wgt>
<wgt id='6025'>0.79418E+02</wgt>
<wgt id='6026'>0.79257E+02</wgt>
<wgt id='6027'>0.79236E+02</wgt>
<wgt id='6028'>0.79092E+02</wgt>
<wgt id='6029'>0.79088E+02</wgt>
<wgt id='6030'>0.79897E+02</wgt>
<wgt id='6031'>0.79061E+02</wgt>
<wgt id='6032'>0.79242E+02</wgt>
<wgt id='6033'>0.79105E+02</wgt>
<wgt id='6034'>0.79393E+02</wgt>
<wgt id='6035'>0.79250E+02</wgt>
<wgt id='6036'>0.79585E+02</wgt>
<wgt id='6037'>0.79220E+02</wgt>
<wgt id='6038'>0.79267E+02</wgt>
<wgt id='6039'>0.79313E+02</wgt>
<wgt id='6040'>0.79201E+02</wgt>
<wgt id='6041'>0.78031E+02</wgt>
<wgt id='6042'>0.79871E+02</wgt>
<wgt id='7000'>0.78822E+02</wgt>
<wgt id='7001'>0.78247E+02</wgt>
<wgt id='7002'>0.78411E+02</wgt>
<wgt id='7003'>0.78323E+02</wgt>
<wgt id='7004'>0.78335E+02</wgt>
<wgt id='7005'>0.78453E+02</wgt>
<wgt id='7006'>0.78205E+02</wgt>
<wgt id='7007'>0.78814E+02</wgt>
<wgt id='7008'>0.77857E+02</wgt>
<wgt id='7009'>0.78066E+02</wgt>
<wgt id='7010'>0.78602E+02</wgt>
<wgt id='7011'>0.78589E+02</wgt>
<wgt id='7012'>0.78071E+02</wgt>
<wgt id='7013'>0.78175E+02</wgt>
<wgt id='7014'>0.78476E+02</wgt>
<wgt id='7015'>0.78200E+02</wgt>
<wgt id='7016'>0.78244E+02</wgt>
<wgt id='7017'>0.78354E+02</wgt>
<wgt id='7018'>0.78303E+02</wgt>
<wgt id='7019'>0.78152E+02</wgt>
<wgt id='7020'>0.78513E+02</wgt>
<wgt id='7021'>0.78207E+02</wgt>
<wgt id='7022'>0.78416E+02</wgt>
<wgt id='7023'>0.78141E+02</wgt>
<wgt id='7024'>0.78526E+02</wgt>
<wgt id='7025'>0.77595E+02</wgt>
<wgt id='7026'>0.78969E+02</wgt>
<wgt id='7027'>0.78065E+02</wgt>
<wgt id='7028'>0.78649E+02</wgt>
<wgt id='8000'>0.79473E+02</wgt>
<wgt id='8001'>0.79461E+02</wgt>
<wgt id='8002'>0.79497E+02</wgt>
<wgt id='8003'>0.79476E+02</wgt>
<wgt id='8004'>0.79471E+02</wgt>
<wgt id='8005'>0.79315E+02</wgt>
<wgt id='8006'>0.79528E+02</wgt>
<wgt id='8007'>0.79582E+02</wgt>
<wgt id='8008'>0.79648E+02</wgt>
<wgt id='8009'>0.79806E+02</wgt>
<wgt id='8010'>0.79400E+02</wgt>
<wgt id='8011'>0.79475E+02</wgt>
<wgt id='8012'>0.79209E+02</wgt>
<wgt id='8013'>0.79341E+02</wgt>
<wgt id='8014'>0.79617E+02</wgt>
<wgt id='8015'>0.79426E+02</wgt>
<wgt id='8016'>0.79533E+02</wgt>
<wgt id='8017'>0.79504E+02</wgt>
<wgt id='8018'>0.79619E+02</wgt>
<wgt id='8019'>0.79577E+02</wgt>
<wgt id='8020'>0.79333E+02</wgt>
<wgt id='8021'>0.79433E+02</wgt>
<wgt id='8022'>0.79212E+02</wgt>
<wgt id='8023'>0.79457E+02</wgt>
<wgt id='8024'>0.79367E+02</wgt>
<wgt id='8025'>0.79560E+02</wgt>
<wgt id='8026'>0.79608E+02</wgt>
<wgt id='8027'>0.79467E+02</wgt>
<wgt id='8028'>0.79538E+02</wgt>
<wgt id='8029'>0.79124E+02</wgt>
<wgt id='3000'>0.81104E+02</wgt>
<wgt id='3001'>0.80519E+02</wgt>
<wgt id='3002'>0.80303E+02</wgt>
<wgt id='3003'>0.82952E+02</wgt>
<wgt id='3004'>0.81836E+02</wgt>
<wgt id='3005'>0.80808E+02</wgt>
<wgt id='3006'>0.83691E+02</wgt>
<wgt id='3007'>0.80589E+02</wgt>
<wgt id='3008'>0.80135E+02</wgt>
<wgt id='3009'>0.82280E+02</wgt>
<wgt id='3010'>0.82786E+02</wgt>
<wgt id='3011'>0.82714E+02</wgt>
<wgt id='3012'>0.81163E+02</wgt>
<wgt id='3013'>0.80329E+02</wgt>
<wgt id='3014'>0.80114E+02</wgt>
<wgt id='3015'>0.81839E+02</wgt>
<wgt id='3016'>0.82496E+02</wgt>
<wgt id='3017'>0.82724E+02</wgt>
<wgt id='3018'>0.80819E+02</wgt>
<wgt id='3019'>0.79658E+02</wgt>
<wgt id='3020'>0.80796E+02</wgt>
<wgt id='3021'>0.79509E+02</wgt>
<wgt id='3022'>0.79435E+02</wgt>
<wgt id='3023'>0.79647E+02</wgt>
<wgt id='3024'>0.79576E+02</wgt>
<wgt id='3025'>0.79728E+02</wgt>
<wgt id='3026'>0.80823E+02</wgt>
<wgt id='3027'>0.79938E+02</wgt>
<wgt id='3028'>0.80813E+02</wgt>
<wgt id='3029'>0.82443E+02</wgt>
<wgt id='3030'>0.82964E+02</wgt>
<wgt id='3031'>0.81856E+02</wgt>
<wgt id='3032'>0.82329E+02</wgt>
<wgt id='3033'>0.80219E+02</wgt>
<wgt id='3034'>0.80644E+02</wgt>
<wgt id='3035'>0.82529E+02</wgt>
<wgt id='3036'>0.81057E+02</wgt>
<wgt id='3037'>0.81140E+02</wgt>
<wgt id='3038'>0.80712E+02</wgt>
<wgt id='3039'>0.81604E+02</wgt>
<wgt id='3040'>0.80858E+02</wgt>
<wgt id='3041'>0.81487E+02</wgt>
<wgt id='3042'>0.80197E+02</wgt>
<wgt id='3043'>0.80952E+02</wgt>
<wgt id='3044'>0.80467E+02</wgt>
<wgt id='3045'>0.81225E+02</wgt>
<wgt id='3046'>0.81689E+02</wgt>
<wgt id='3047'>0.79036E+02</wgt>
<wgt id='3048'>0.79109E+02</wgt>
<wgt id='3049'>0.82018E+02</wgt>
<wgt id='3050'>0.82572E+02</wgt>
<wgt id='3051'>0.81267E+02</wgt>
<wgt id='3052'>0.80061E+02</wgt>
<wgt id='3053'>0.80763E+02</wgt>
<wgt id='3054'>0.81271E+02</wgt>
<wgt id='3055'>0.79300E+02</wgt>
<wgt id='3056'>0.80574E+02</wgt>
<wgt id='3057'>0.80565E+02</wgt>
<wgt id='3058'>0.79426E+02</wgt>
<wgt id='3059'>0.83073E+02</wgt>
<wgt id='3060'>0.81426E+02</wgt>
<wgt id='3061'>0.81097E+02</wgt>
<wgt id='3062'>0.80766E+02</wgt>
<wgt id='3063'>0.79105E+02</wgt>
<wgt id='3064'>0.80528E+02</wgt>
<wgt id='3065'>0.80453E+02</wgt>
<wgt id='3066'>0.81321E+02</wgt>
<wgt id='3067'>0.79308E+02</wgt>
<wgt id='3068'>0.82065E+02</wgt>
<wgt id='3069'>0.80515E+02</wgt>
<wgt id='3070'>0.79460E+02</wgt>
<wgt id='3071'>0.82773E+02</wgt>
<wgt id='3072'>0.81657E+02</wgt>
<wgt id='3073'>0.82151E+02</wgt>
<wgt id='3074'>0.82629E+02</wgt>
<wgt id='3075'>0.82502E+02</wgt>
<wgt id='3076'>0.82907E+02</wgt>
<wgt id='3077'>0.80035E+02</wgt>
<wgt id='3078'>0.82129E+02</wgt>
<wgt id='3079'>0.81092E+02</wgt>
<wgt id='3080'>0.80735E+02</wgt>
<wgt id='3081'>0.79145E+02</wgt>
<wgt id='3082'>0.82496E+02</wgt>
<wgt id='3083'>0.81046E+02</wgt>
<wgt id='3084'>0.81172E+02</wgt>
<wgt id='3085'>0.82903E+02</wgt>
<wgt id='3086'>0.79147E+02</wgt>
<wgt id='3087'>0.82052E+02</wgt>
<wgt id='3088'>0.82273E+02</wgt>
<wgt id='3089'>0.83927E+02</wgt>
<wgt id='3090'>0.80680E+02</wgt>
<wgt id='3091'>0.80238E+02</wgt>
<wgt id='3092'>0.82591E+02</wgt>
<wgt id='3093'>0.81909E+02</wgt>
<wgt id='3094'>0.80908E+02</wgt>
<wgt id='3095'>0.80813E+02</wgt>
<wgt id='3096'>0.80346E+02</wgt>
<wgt id='3097'>0.79880E+02</wgt>
<wgt id='3098'>0.81915E+02</wgt>
<wgt id='3099'>0.80361E+02</wgt>
<wgt id='3100'>0.80725E+02</wgt>
<wgt id='3200'>0.78655E+02</wgt>
<wgt id='3201'>0.79026E+02</wgt>
<wgt id='3202'>0.77822E+02</wgt>
<wgt id='3203'>0.78465E+02</wgt>
<wgt id='3204'>0.78113E+02</wgt>
<wgt id='3205'>0.79254E+02</wgt>
<wgt id='3206'>0.78985E+02</wgt>
<wgt id='3207'>0.79287E+02</wgt>
<wgt id='3208'>0.79104E+02</wgt>
<wgt id='3209'>0.78502E+02</wgt>
<wgt id='3210'>0.78594E+02</wgt>
<wgt id='3211'>0.79633E+02</wgt>
<wgt id='3212'>0.77733E+02</wgt>
<wgt id='3213'>0.78195E+02</wgt>
<wgt id='3214'>0.77768E+02</wgt>
<wgt id='3215'>0.78642E+02</wgt>
<wgt id='3216'>0.79100E+02</wgt>
<wgt id='3217'>0.78996E+02</wgt>
<wgt id='3218'>0.78702E+02</wgt>
<wgt id='3219'>0.78769E+02</wgt>
<wgt id='3220'>0.77935E+02</wgt>
<wgt id='3221'>0.79407E+02</wgt>
<wgt id='3222'>0.79427E+02</wgt>
<wgt id='3223'>0.78573E+02</wgt>
<wgt id='3224'>0.78324E+02</wgt>
<wgt id='3225'>0.79137E+02</wgt>
<wgt id='3226'>0.78725E+02</wgt>
<wgt id='3227'>0.77955E+02</wgt>
<wgt id='3228'>0.78039E+02</wgt>
<wgt id='3229'>0.79060E+02</wgt>
<wgt id='3230'>0.79203E+02</wgt>
<wgt id='3231'>0.78918E+02</wgt>
<wgt id='3232'>0.79084E+02</wgt>
<wgt id='3233'>0.78945E+02</wgt>
<wgt id='3234'>0.78875E+02</wgt>
<wgt id='3235'>0.78095E+02</wgt>
<wgt id='3236'>0.77952E+02</wgt>
<wgt id='3237'>0.78325E+02</wgt>
<wgt id='3238'>0.78600E+02</wgt>
<wgt id='3239'>0.78290E+02</wgt>
<wgt id='3240'>0.78794E+02</wgt>
<wgt id='3241'>0.79339E+02</wgt>
<wgt id='3242'>0.77911E+02</wgt>
<wgt id='3243'>0.77805E+02</wgt>
<wgt id='3244'>0.78382E+02</wgt>
<wgt id='3245'>0.79170E+02</wgt>
<wgt id='3246'>0.78172E+02</wgt>
<wgt id='3247'>0.78488E+02</wgt>
<wgt id='3248'>0.78321E+02</wgt>
<wgt id='3249'>0.78508E+02</wgt>
<wgt id='3250'>0.79138E+02</wgt>
<wgt id='3251'>0.78698E+02</wgt>
<wgt id='3252'>0.78706E+02</wgt>
<wgt id='3253'>0.78703E+02</wgt>
<wgt id='3254'>0.78681E+02</wgt>
<wgt id='3255'>0.78613E+02</wgt>
<wgt id='3256'>0.77873E+02</wgt>
<wgt id='3257'>0.78527E+02</wgt>
<wgt id='3258'>0.79105E+02</wgt>
<wgt id='3259'>0.78786E+02</wgt>
<wgt id='3260'>0.78597E+02</wgt>
<wgt id='3261'>0.79029E+02</wgt>
<wgt id='3262'>0.78205E+02</wgt>
<wgt id='3263'>0.78831E+02</wgt>
<wgt id='3264'>0.79036E+02</wgt>
<wgt id='3265'>0.79180E+02</wgt>
<wgt id='3266'>0.78325E+02</wgt>
<wgt id='3267'>0.78555E+02</wgt>
<wgt id='3268'>0.79556E+02</wgt>
<wgt id='3269'>0.78796E+02</wgt>
<wgt id='3270'>0.78841E+02</wgt>
<wgt id='3271'>0.78811E+02</wgt>
<wgt id='3272'>0.79154E+02</wgt>
<wgt id='3273'>0.78715E+02</wgt>
<wgt id='3274'>0.79050E+02</wgt>
<wgt id='3275'>0.78790E+02</wgt>
<wgt id='3276'>0.78540E+02</wgt>
<wgt id='3277'>0.78088E+02</wgt>
<wgt id='3278'>0.78548E+02</wgt>
<wgt id='3279'>0.79234E+02</wgt>
<wgt id='3280'>0.78426E+02</wgt>
<wgt id='3281'>0.78807E+02</wgt>
<wgt id='3282'>0.79038E+02</wgt>
<wgt id='3283'>0.78828E+02</wgt>
<wgt id='3284'>0.78654E+02</wgt>
<wgt id='3285'>0.77983E+02</wgt>
<wgt id='3286'>0.78680E+02</wgt>
<wgt id='3287'>0.78168E+02</wgt>
<wgt id='3288'>0.79185E+02</wgt>
<wgt id='3289'>0.79985E+02</wgt>
<wgt id='3290'>0.79743E+02</wgt>
<wgt id='3291'>0.77417E+02</wgt>
<wgt id='3292'>0.77535E+02</wgt>
<wgt id='3293'>0.78262E+02</wgt>
<wgt id='3294'>0.77399E+02</wgt>
<wgt id='3295'>0.78042E+02</wgt>
<wgt id='3296'>0.79824E+02</wgt>
<wgt id='3297'>0.78485E+02</wgt>
<wgt id='3298'>0.78774E+02</wgt>
<wgt id='3299'>0.78137E+02</wgt>
<wgt id='3300'>0.79056E+02</wgt>
<wgt id='3301'>0.77252E+02</wgt>
<wgt id='3302'>0.79975E+02</wgt>
<wgt id='3400'>0.78671E+02</wgt>
<wgt id='3401'>0.78675E+02</wgt>
<wgt id='3402'>0.78357E+02</wgt>
<wgt id='3403'>0.79625E+02</wgt>
<wgt id='3404'>0.79969E+02</wgt>
<wgt id='3405'>0.79372E+02</wgt>
<wgt id='3406'>0.78757E+02</wgt>
<wgt id='3407'>0.78187E+02</wgt>
<wgt id='3408'>0.80274E+02</wgt>
<wgt id='3409'>0.79662E+02</wgt>
<wgt id='3410'>0.78513E+02</wgt>
<wgt id='3411'>0.79256E+02</wgt>
<wgt id='3412'>0.79467E+02</wgt>
<wgt id='3413'>0.78553E+02</wgt>
<wgt id='3414'>0.78434E+02</wgt>
<wgt id='3415'>0.78687E+02</wgt>
<wgt id='3416'>0.78133E+02</wgt>
<wgt id='3417'>0.78945E+02</wgt>
<wgt id='3418'>0.78153E+02</wgt>
<wgt id='3419'>0.78305E+02</wgt>
<wgt id='3420'>0.79131E+02</wgt>
<wgt id='3421'>0.79001E+02</wgt>
<wgt id='3422'>0.79489E+02</wgt>
<wgt id='3423'>0.79218E+02</wgt>
<wgt id='3424'>0.79003E+02</wgt>
<wgt id='3425'>0.78374E+02</wgt>
<wgt id='3426'>0.79126E+02</wgt>
<wgt id='3427'>0.78718E+02</wgt>
<wgt id='3428'>0.79703E+02</wgt>
<wgt id='3429'>0.78068E+02</wgt>
<wgt id='3430'>0.79207E+02</wgt>
<wgt id='3431'>0.78801E+02</wgt>
<wgt id='3432'>0.78630E+02</wgt>
<wgt id='3433'>0.77263E+02</wgt>
<wgt id='3434'>0.78552E+02</wgt>
<wgt id='3435'>0.78655E+02</wgt>
<wgt id='3436'>0.78800E+02</wgt>
<wgt id='3437'>0.78726E+02</wgt>
<wgt id='3438'>0.77931E+02</wgt>
<wgt id='3439'>0.79282E+02</wgt>
<wgt id='3440'>0.78715E+02</wgt>
<wgt id='3441'>0.78571E+02</wgt>
<wgt id='3442'>0.77108E+02</wgt>
<wgt id='3443'>0.78459E+02</wgt>
<wgt id='3444'>0.78432E+02</wgt>
<wgt id='3445'>0.78279E+02</wgt>
<wgt id='3446'>0.79183E+02</wgt>
<wgt id='3447'>0.80205E+02</wgt>
<wgt id='3448'>0.79263E+02</wgt>
<wgt id='3449'>0.79245E+02</wgt>
<wgt id='3450'>0.78578E+02</wgt>
<wgt id='3451'>0.79825E+02</wgt>
<wgt id='3452'>0.78258E+02</wgt>
<wgt id='3453'>0.78147E+02</wgt>
<wgt id='3454'>0.77711E+02</wgt>
<wgt id='3455'>0.79694E+02</wgt>
<wgt id='3456'>0.79054E+02</wgt>
<wgt id='3457'>0.79451E+02</wgt>
<wgt id='3458'>0.78791E+02</wgt>
<wgt id='3459'>0.78381E+02</wgt>
<wgt id='3460'>0.78363E+02</wgt>
<wgt id='3461'>0.78083E+02</wgt>
<wgt id='3462'>0.78057E+02</wgt>
<wgt id='3463'>0.77792E+02</wgt>
<wgt id='3464'>0.79198E+02</wgt>
<wgt id='3465'>0.78338E+02</wgt>
<wgt id='3466'>0.78938E+02</wgt>
<wgt id='3467'>0.78462E+02</wgt>
<wgt id='3468'>0.77515E+02</wgt>
<wgt id='3469'>0.78788E+02</wgt>
<wgt id='3470'>0.78801E+02</wgt>
<wgt id='3471'>0.78655E+02</wgt>
<wgt id='3472'>0.78116E+02</wgt>
<wgt id='3473'>0.78906E+02</wgt>
<wgt id='3474'>0.78552E+02</wgt>
<wgt id='3475'>0.78441E+02</wgt>
<wgt id='3476'>0.78982E+02</wgt>
<wgt id='3477'>0.77821E+02</wgt>
<wgt id='3478'>0.78893E+02</wgt>
<wgt id='3479'>0.79727E+02</wgt>
<wgt id='3480'>0.78102E+02</wgt>
<wgt id='3481'>0.78929E+02</wgt>
<wgt id='3482'>0.78155E+02</wgt>
<wgt id='3483'>0.77225E+02</wgt>
<wgt id='3484'>0.78468E+02</wgt>
<wgt id='3485'>0.78437E+02</wgt>
<wgt id='3486'>0.77391E+02</wgt>
<wgt id='3487'>0.78863E+02</wgt>
<wgt id='3488'>0.79655E+02</wgt>
<wgt id='3489'>0.77876E+02</wgt>
<wgt id='3490'>0.78823E+02</wgt>
<wgt id='3491'>0.78757E+02</wgt>
<wgt id='3492'>0.79081E+02</wgt>
<wgt id='3493'>0.78099E+02</wgt>
<wgt id='3494'>0.77059E+02</wgt>
<wgt id='3495'>0.78779E+02</wgt>
<wgt id='3496'>0.77566E+02</wgt>
<wgt id='3497'>0.78030E+02</wgt>
<wgt id='3498'>0.78988E+02</wgt>
<wgt id='3499'>0.78763E+02</wgt>
<wgt id='3500'>0.79375E+02</wgt>
</rwgt>
</event>
<event>
     13 322200  8.11039E+01  7.50988E+01 -1.00000E+00  1.27950E-01
      21    -1     0     0   502   503  0.000000000E+00  0.000000000E+00  3.380070481E+02  3.380070481E+02  0.000000000E+00  0.00000E+00  9.000E+00
      21    -1     0     0   503   504  0.000000000E+00  0.000000000E+00 -5.714095747E+02  5.714095747E+02  0.000000000E+00  0.00000E+00  9.000E+00
       6     2     1     2   502     0 -1.025496591E+02 -1.005977817E+02  9.626949622E+01  2.445894396E+02  1.729735003E+02  0.00000E+00  9.000E+00
      -6     2     1     2     0   505  3.390960641E+01  7.012845765E+01  1.097005586E+02  2.190827477E+02  1.729022146E+02  0.00000E+00  9.000E+00
      21     1     1     2   505   504  6.864005266E+01  3.046932408E+01 -4.393725814E+02  4.457444355E+02  0.000000000E+00  0.00000E+00  9.000E+00
      24     2     3     3     0     0 -1.186158195E+02 -4.794434307E+01  2.485146684E+01  1.542752955E+02  8.255239988E+01  0.00000E+00  9.000E+00
       5     1     3     3   502     0  1.606616039E+01 -5.265343865E+01  7.141802939E+01  9.031414415E+01  5.060000000E+00  0.00000E+00 -1.000E+00
     -24     2     4     4     0     0  3.724493382E+01  9.802523479E+01  1.289996130E+02  1.846239072E+02  8.030538720E+01  0.00000E+00  9.000E+00
      -5     1     4     4     0   505 -3.335327410E+00 -2.789677714E+01 -1.929905443E+01  3.445884046E+01  5.060000000E+00  0.00000E+00  1.000E+00
     -11     1     6     6     0     0 -8.370728731E+01 -3.206708185E+00  4.369879029E+01  9.448162361E+01  5.100000000E-04  0.00000E+00  1.000E+00
      12     1     6     6     0     0 -3.490853215E+01 -4.473763488E+01 -1.884732346E+01  5.979367185E+01  0.000000000E+00  0.00000E+00 -1.000E+00
      15     1     8     8     0     0 -7.261500510E+00 -7.312160154E+00  3.520273311E+01  3.672311565E+01  1.777000000E+00  0.00000E+00 -1.000E+00
     -16     1     8     8     0     0  4.450643433E+01  1.053373949E+02  9.379687991E+01  1.479007916E+02  0.000000000E+00  0.00000E+00  1.000E+00
#rwgt            1           1   853.64140006628156               10        9526           0
<rwgt>
<wgt id='1001'>0.81104E+02</wgt>
<wgt id='1002'>0.72655E+02</wgt>
<wgt id='1003'>0.89850E+02</wgt>
<wgt id='1004'>0.72810E+02</wgt>
<wgt id='1005'>0.65852E+02</wgt>
<wgt id='1006'>0.79974E+02</wgt>
<wgt id='1007'>0.90141E+02</wgt>
<wgt id='1008'>0.79662E+02</wgt>
<wgt id='1009'>0.10106E+03</wgt>
<wgt id='2000'>0.81104E+02</wgt>
<wgt id='2001'>0.81217E+02</wgt>
<wgt id='2002'>0.80888E+02</wgt>
<wgt id='2003'>0.81037E+02</wgt>
<wgt id='2004'>0.81294E+02</wgt>
<wgt id='2005'>0.81218E+02</wgt>
<wgt id='2006'>0.81302E+02</wgt>
<wgt id='2007'>0.81367E+02</wgt>
<wgt id='2008'>0.81578E+02</wgt>
<wgt id='2009'>0.80983E+02</wgt>
<wgt id='2010'>0.81072E+02</wgt>
<wgt id='2011'>0.80681E+02</wgt>
<wgt id='2012'>0.81313E+02</wgt>
<wgt id='2013'>0.81188E+02</wgt>
<wgt id='2014'>0.81335E+02</wgt>
<wgt id='2015'>0.81261E+02</wgt>
<wgt id='2016'>0.81092E+02</wgt>
<wgt id='2017'>0.81053E+02</wgt>
<wgt id='2018'>0.81095E+02</wgt>
<wgt id='2019'>0.81431E+02</wgt>
<wgt id='2020'>0.80900E+02</wgt>
<wgt id='2021'>0.81083E+02</wgt>
<wgt id='2022'>0.80988E+02</wgt>
<wgt id='2023'>0.81078E+02</wgt>
<wgt id='2024'>0.81082E+02</wgt>
<wgt id='2025'>0.81073E+02</wgt>
<wgt id='2026'>0.81041E+02</wgt>
<wgt id='2027'>0.80841E+02</wgt>
<wgt id='2028'>0.81217E+02</wgt>
<wgt id='2029'>0.80824E+02</wgt>
<wgt id='2030'>0.81045E+02</wgt>
<wgt id='2031'>0.80863E+02</wgt>
<wgt id='2032'>0.81120E+02</wgt>
<wgt id='2033'>0.81020E+02</wgt>
<wgt id='2034'>0.80996E+02</wgt>
<wgt id='2035'>0.81114E+02</wgt>
<wgt id='2036'>0.81269E+02</wgt>
<wgt id='2037'>0.81097E+02</wgt>
<wgt id='2038'>0.81080E+02</wgt>
<wgt id='2039'>0.81104E+02</wgt>
<wgt id='2040'>0.81060E+02</wgt>
<wgt id='2041'>0.81103E+02</wgt>
<wgt id='2042'>0.81126E+02</wgt>
<wgt id='2043'>0.81056E+02</wgt>
<wgt id='2044'>0.81151E+02</wgt>
<wgt id='2045'>0.81132E+02</wgt>
<wgt id='2046'>0.81125E+02</wgt>
<wgt id='2047'>0.81080E+02</wgt>
<wgt id='2048'>0.81072E+02</wgt>
<wgt id='2049'>0.81048E+02</wgt>
<wgt id='2050'>0.81072E+02</wgt>
<wgt id='2051'>0.81094E+02</wgt>
<wgt id='2052'>0.81166E+02</wgt>
<wgt id='2053'>0.81093E+02</wgt>
<wgt id='2054'>0.81102E+02</wgt>
<wgt id='2055'>0.81119E+02</wgt>
<wgt id='2056'>0.81075E+02</wgt>
<wgt id='2057'>0.81133E+02</wgt>
<wgt id='2058'>0.81114E+02</wgt>
<wgt id='2059'>0.81117E+02</wgt>
<wgt id='2060'>0.81103E+02</wgt>
<wgt id='2061'>0.81090E+02</wgt>
<wgt id='2062'>0.81163E+02</wgt>
<wgt id='2063'>0.81121E+02</wgt>
<wgt id='2064'>0.81122E+02</wgt>
<wgt id='2065'>0.81167E+02</wgt>
<wgt id='2066'>0.81108E+02</wgt>
<wgt id='2067'>0.81126E+02</wgt>
<wgt id='2068'>0.81117E+02</wgt>
<wgt id='2069'>0.81110E+02</wgt>
<wgt id='2070'>0.81111E+02</wgt>
<wgt id='2071'>0.81108E+02</wgt>
<wgt id='2072'>0.81106E+02</wgt>
<wgt id='2073'>0.81120E+02</wgt>
<wgt id='2074'>0.81089E+02</wgt>
<wgt id='2075'>0.81092E+02</wgt>
<wgt id='2076'>0.81094E+02</wgt>
<wgt id='2077'>0.81148E+02</wgt>
<wgt id='2078'>0.81110E+02</wgt>
<wgt id='2079'>0.81086E+02</wgt>
<wgt id='2080'>0.81108E+02</wgt>
<wgt id='2081'>0.81093E+02</wgt>
<wgt id='2082'>0.81114E+02</wgt>
<wgt id='2083'>0.81129E+02</wgt>
<wgt id='2084'>0.81113E+02</wgt>
<wgt id='2085'>0.81103E+02</wgt>
<wgt id='2086'>0.81093E+02</wgt>
<wgt id='2087'>0.81113E+02</wgt>
<wgt id='2088'>0.81100E+02</wgt>
<wgt id='2089'>0.81098E+02</wgt>
<wgt id='2090'>0.81117E+02</wgt>
<wgt id='2091'>0.81105E+02</wgt>
<wgt id='2092'>0.81119E+02</wgt>
<wgt id='2093'>0.81091E+02</wgt>
<wgt id='2094'>0.81104E+02</wgt>
<wgt id='2095'>0.81113E+02</wgt>
<wgt id='2096'>0.81096E+02</wgt>
<wgt id='2097'>0.81111E+02</wgt>
<wgt id='2098'>0.81102E+02</wgt>
<wgt id='2099'>0.81114E+02</wgt>
<wgt id='2100'>0.81104E+02</wgt>
<wgt id='2101'>0.79057E+02</wgt>
<wgt id='2102'>0.83037E+02</wgt>
<wgt id='2200'>0.81146E+02</wgt>
<wgt id='2201'>0.71943E+02</wgt>
<wgt id='2202'>0.73627E+02</wgt>
<wgt id='2203'>0.75704E+02</wgt>
<wgt id='2204'>0.77626E+02</wgt>
<wgt id='2205'>0.80342E+02</wgt>
<wgt id='2206'>0.82260E+02</wgt>
<wgt id='2207'>0.84579E+02</wgt>
<wgt id='2208'>0.86445E+02</wgt>
<wgt id='2300'>0.84427E+02</wgt>
<wgt id='2301'>0.84560E+02</wgt>
<wgt id='2302'>0.84336E+02</wgt>
<wgt id='2303'>0.84556E+02</wgt>
<wgt id='2304'>0.84613E+02</wgt>
<wgt id='2305'>0.84691E+02</wgt>
<wgt id='2306'>0.84432E+02</wgt>
<wgt id='2307'>0.84688E+02</wgt>
<wgt id='2308'>0.84320E+02</wgt>
<wgt id='2309'>0.84650E+02</wgt>
<wgt id='2310'>0.84234E+02</wgt>
<wgt id='2311'>0.84341E+02</wgt>
<wgt id='2312'>0.84695E+02</wgt>
<wgt id='2313'>0.84288E+02</wgt>
<wgt id='2314'>0.84651E+02</wgt>
<wgt id='2315'>0.84383E+02</wgt>
<wgt id='2316'>0.84479E+02</wgt>
<wgt id='2317'>0.84647E+02</wgt>
<wgt id='2318'>0.84641E+02</wgt>
<wgt id='2319'>0.84158E+02</wgt>
<wgt id='2320'>0.84210E+02</wgt>
<wgt id='2321'>0.84118E+02</wgt>
<wgt id='2322'>0.84407E+02</wgt>
<wgt id='2323'>0.84247E+02</wgt>
<wgt id='2324'>0.84188E+02</wgt>
<wgt id='2325'>0.84457E+02</wgt>
<wgt id='2326'>0.84573E+02</wgt>
<wgt id='2327'>0.84458E+02</wgt>
<wgt id='2328'>0.84143E+02</wgt>
<wgt id='2329'>0.84296E+02</wgt>
<wgt id='2330'>0.84644E+02</wgt>
<wgt id='2331'>0.84534E+02</wgt>
<wgt id='2332'>0.84514E+02</wgt>
<wgt id='2333'>0.84569E+02</wgt>
<wgt id='2334'>0.84471E+02</wgt>
<wgt id='2335'>0.84591E+02</wgt>
<wgt id='2336'>0.84474E+02</wgt>
<wgt id='2337'>0.84423E+02</wgt>
<wgt id='2338'>0.84434E+02</wgt>
<wgt id='2339'>0.84395E+02</wgt>
<wgt id='2340'>0.84417E+02</wgt>
<wgt id='2341'>0.84472E+02</wgt>
<wgt id='2342'>0.84339E+02</wgt>
<wgt id='2343'>0.84343E+02</wgt>
<wgt id='2344'>0.84446E+02</wgt>
<wgt id='2345'>0.84486E+02</wgt>
<wgt id='2346'>0.84489E+02</wgt>
<wgt id='2347'>0.84419E+02</wgt>
<wgt id='2348'>0.84467E+02</wgt>
<wgt id='2349'>0.84414E+02</wgt>
<wgt id='2350'>0.84413E+02</wgt>
<wgt id='2351'>0.84518E+02</wgt>
<wgt id='2352'>0.84392E+02</wgt>
<wgt id='2353'>0.84400E+02</wgt>
<wgt id='2354'>0.84419E+02</wgt>
<wgt id='2355'>0.84377E+02</wgt>
<wgt id='2356'>0.84439E+02</wgt>
<wgt id='2357'>0.84393E+02</wgt>
<wgt id='2358'>0.84390E+02</wgt>
<wgt id='2359'>0.84422E+02</wgt>
<wgt id='2360'>0.84444E+02</wgt>
<wgt id='2361'>0.84431E+02</wgt>
<wgt id='2362'>0.84440E+02</wgt>
<wgt id='2363'>0.84461E+02</wgt>
<wgt id='2364'>0.84410E+02</wgt>
<wgt id='2365'>0.84429E+02</wgt>
<wgt id='2366'>0.84439E+02</wgt>
<wgt id='2367'>0.84399E+02</wgt>
<wgt id='2368'>0.84433E+02</wgt>
<wgt id='2369'>0.84407E+02</wgt>
<wgt id='2370'>0.84433E+02</wgt>
<wgt id='2371'>0.84423E+02</wgt>
<wgt id='2372'>0.84433E+02</wgt>
<wgt id='2373'>0.84404E+02</wgt>
<wgt id='2374'>0.84463E+02</wgt>
<wgt id='2375'>0.84429E+02</wgt>
<wgt id='2376'>0.84429E+02</wgt>
<wgt id='2377'>0.84436E+02</wgt>
<wgt id='2378'>0.84441E+02</wgt>
<wgt id='2379'>0.84417E+02</wgt>
<wgt id='2380'>0.84412E+02</wgt>
<wgt id='2381'>0.84420E+02</wgt>
<wgt id='2382'>0.84411E+02</wgt>
<wgt id='2383'>0.84437E+02</wgt>
<wgt id='2384'>0.84424E+02</wgt>
<wgt id='2385'>0.84439E+02</wgt>
<wgt id='2386'>0.84431E+02</wgt>
<wgt id='2387'>0.84422E+02</wgt>
<wgt id='2388'>0.84421E+02</wgt>
<wgt id='2389'>0.84430E+02</wgt>
<wgt id='2390'>0.84435E+02</wgt>
<wgt id='2391'>0.84423E+02</wgt>
<wgt id='2392'>0.84422E+02</wgt>
<wgt id='2393'>0.84432E+02</wgt>
<wgt id='2394'>0.84442E+02</wgt>
<wgt id='2395'>0.84428E+02</wgt>
<wgt id='2396'>0.84410E+02</wgt>
<wgt id='2397'>0.84412E+02</wgt>
<wgt id='2398'>0.84414E+02</wgt>
<wgt id='2399'>0.84434E+02</wgt>
<wgt id='2400'>0.84433E+02</wgt>
<wgt id='2401'>0.82404E+02</wgt>
<wgt id='2402'>0.86520E+02</wgt>
<wgt id='2500'>0.80876E+02</wgt>
<wgt id='2501'>0.85104E+02</wgt>
<wgt id='2600'>0.78799E+02</wgt>
<wgt id='2601'>0.78762E+02</wgt>
<wgt id='2602'>0.78787E+02</wgt>
<wgt id='2603'>0.78759E+02</wgt>
<wgt id='2604'>0.78928E+02</wgt>
<wgt id='2605'>0.78684E+02</wgt>
<wgt id='2606'>0.78573E+02</wgt>
<wgt id='2607'>0.78979E+02</wgt>
<wgt id='2608'>0.78698E+02</wgt>
<wgt id='2609'>0.78755E+02</wgt>
<wgt id='2610'>0.78759E+02</wgt>
<wgt id='2611'>0.78732E+02</wgt>
<wgt id='2612'>0.79116E+02</wgt>
<wgt id='2613'>0.78773E+02</wgt>
<wgt id='2614'>0.78789E+02</wgt>
<wgt id='2615'>0.78700E+02</wgt>
<wgt id='2616'>0.78776E+02</wgt>
<wgt id='2617'>0.78703E+02</wgt>
<wgt id='2618'>0.78641E+02</wgt>
<wgt id='2619'>0.78836E+02</wgt>
<wgt id='2620'>0.78827E+02</wgt>
<wgt id='2621'>0.78775E+02</wgt>
<wgt id='2622'>0.78839E+02</wgt>
<wgt id='2623'>0.78798E+02</wgt>
<wgt id='2624'>0.78807E+02</wgt>
<wgt id='2625'>0.78755E+02</wgt>
<wgt id='2626'>0.78792E+02</wgt>
<wgt id='2627'>0.78772E+02</wgt>
<wgt id='2628'>0.78810E+02</wgt>
<wgt id='2629'>0.78798E+02</wgt>
<wgt id='2630'>0.78788E+02</wgt>
<wgt id='2631'>0.78801E+02</wgt>
<wgt id='2632'>0.78800E+02</wgt>
<wgt id='2633'>0.78799E+02</wgt>
<wgt id='2634'>0.78808E+02</wgt>
<wgt id='2635'>0.78792E+02</wgt>
<wgt id='2636'>0.78794E+02</wgt>
<wgt id='2637'>0.78796E+02</wgt>
<wgt id='2638'>0.78801E+02</wgt>
<wgt id='2639'>0.78799E+02</wgt>
<wgt id='2640'>0.78802E+02</wgt>
<wgt id='2641'>0.78798E+02</wgt>
<wgt id='2642'>0.78799E+02</wgt>
<wgt id='2643'>0.78804E+02</wgt>
<wgt id='2644'>0.78798E+02</wgt>
<wgt id='2645'>0.78798E+02</wgt>
<wgt id='2646'>0.78790E+02</wgt>
<wgt id='2647'>0.78803E+02</wgt>
<wgt id='2648'>0.78801E+02</wgt>
<wgt id='2649'>0.78803E+02</wgt>
<wgt id='2650'>0.78800E+02</wgt>
<wgt id='2651'>0.77513E+02</wgt>
<wgt id='2652'>0.80000E+02</wgt>
<wgt id='2700'>0.76273E+02</wgt>
<wgt id='2701'>0.77513E+02</wgt>
<wgt id='2702'>0.78195E+02</wgt>
<wgt id='2703'>0.79317E+02</wgt>
<wgt id='2704'>0.80000E+02</wgt>
<wgt id='2705'>0.81120E+02</wgt>
<wgt id='2800'>0.79927E+02</wgt>
<wgt id='4000'>0.79317E+02</wgt>
<wgt id='4001'>0.79651E+02</wgt>
<wgt id='4002'>0.79151E+02</wgt>
<wgt id='4003'>0.79973E+02</wgt>
<wgt id='4004'>0.78476E+02</wgt>
<wgt id='4005'>0.78833E+02</wgt>
<wgt id='4006'>0.79685E+02</wgt>
<wgt id='4007'>0.80308E+02</wgt>
<wgt id='4008'>0.78317E+02</wgt>
<wgt id='4009'>0.79864E+02</wgt>
<wgt id='4010'>0.78913E+02</wgt>
<wgt id='4011'>0.79553E+02</wgt>
<wgt id='4012'>0.79077E+02</wgt>
<wgt id='4013'>0.79809E+02</wgt>
<wgt id='4014'>0.78857E+02</wgt>
<wgt id='4015'>0.79057E+02</wgt>
<wgt id='4016'>0.79226E+02</wgt>
<wgt id='4017'>0.79213E+02</wgt>
<wgt id='4018'>0.79459E+02</wgt>
<wgt id='4019'>0.79871E+02</wgt>
<wgt id='4020'>0.78417E+02</wgt>
<wgt id='4021'>0.79330E+02</wgt>
<wgt id='4022'>0.79262E+02</wgt>
<wgt id='4023'>0.78851E+02</wgt>
<wgt id='4024'>0.79665E+02</wgt>
<wgt id='4025'>0.79587E+02</wgt>
<wgt id='4026'>0.78605E+02</wgt>
<wgt id='4027'>0.79061E+02</wgt>
<wgt id='4028'>0.79520E+02</wgt>
<wgt id='4029'>0.78264E+02</wgt>
<wgt id='4030'>0.79692E+02</wgt>
<wgt id='4031'>0.79318E+02</wgt>
<wgt id='4032'>0.78650E+02</wgt>
<wgt id='4033'>0.79009E+02</wgt>
<wgt id='4034'>0.79439E+02</wgt>
<wgt id='4035'>0.80099E+02</wgt>
<wgt id='4036'>0.78659E+02</wgt>
<wgt id='4037'>0.80205E+02</wgt>
<wgt id='4038'>0.78496E+02</wgt>
<wgt id='4039'>0.80395E+02</wgt>
<wgt id='4040'>0.78141E+02</wgt>
<wgt id='4041'>0.79140E+02</wgt>
<wgt id='4042'>0.79405E+02</wgt>
<wgt id='4043'>0.78294E+02</wgt>
<wgt id='4044'>0.79821E+02</wgt>
<wgt id='4045'>0.81178E+02</wgt>
<wgt id='4046'>0.78416E+02</wgt>
<wgt id='4047'>0.78147E+02</wgt>
<wgt id='4048'>0.79711E+02</wgt>
<wgt id='4049'>0.79086E+02</wgt>
<wgt id='4050'>0.79437E+02</wgt>
<wgt id='4051'>0.80539E+02</wgt>
<wgt id='4052'>0.78114E+02</wgt>
<wgt id='4053'>0.80203E+02</wgt>
<wgt id='4054'>0.78208E+02</wgt>
<wgt id='4055'>0.79649E+02</wgt>
<wgt id='4056'>0.78855E+02</wgt>
<wgt id='4057'>0.78564E+02</wgt>
<wgt id='4058'>0.79836E+02</wgt>
<wgt id='4100'>0.80206E+02</wgt>
<wgt id='4101'>0.79789E+02</wgt>
<wgt id='4102'>0.78806E+02</wgt>
<wgt id='4103'>0.78266E+02</wgt>
<wgt id='4200'>0.76279E+02</wgt>
<wgt id='4201'>0.76407E+02</wgt>
<wgt id='4202'>0.76328E+02</wgt>
<wgt id='4203'>0.75723E+02</wgt>
<wgt id='4204'>0.76751E+02</wgt>
<wgt id='4205'>0.76259E+02</wgt>
<wgt id='4206'>0.76345E+02</wgt>
<wgt id='4207'>0.76010E+02</wgt>
<wgt id='4208'>0.76477E+02</wgt>
<wgt id='4209'>0.76410E+02</wgt>
<wgt id='4210'>0.76275E+02</wgt>
<wgt id='4211'>0.77224E+02</wgt>
<wgt id='4212'>0.75520E+02</wgt>
<wgt id='4213'>0.76390E+02</wgt>
<wgt id='4214'>0.76094E+02</wgt>
<wgt id='4215'>0.76437E+02</wgt>
<wgt id='4216'>0.75781E+02</wgt>
<wgt id='4217'>0.75909E+02</wgt>
<wgt id='4218'>0.76560E+02</wgt>
<wgt id='4219'>0.75252E+02</wgt>
<wgt id='4220'>0.77168E+02</wgt>
<wgt id='4221'>0.75701E+02</wgt>
<wgt id='4222'>0.76873E+02</wgt>
<wgt id='4223'>0.77004E+02</wgt>
<wgt id='4224'>0.75583E+02</wgt>
<wgt id='4225'>0.74779E+02</wgt>
<wgt id='4226'>0.77564E+02</wgt>
<wgt id='4227'>0.76642E+02</wgt>
<wgt id='4228'>0.75959E+02</wgt>
<wgt id='4229'>0.75944E+02</wgt>
<wgt id='4230'>0.76455E+02</wgt>
<wgt id='4231'>0.76168E+02</wgt>
<wgt id='4232'>0.76378E+02</wgt>
<wgt id='4233'>0.76531E+02</wgt>
<wgt id='4234'>0.75947E+02</wgt>
<wgt id='4235'>0.76586E+02</wgt>
<wgt id='4236'>0.76005E+02</wgt>
<wgt id='4237'>0.76218E+02</wgt>
<wgt id='4238'>0.76233E+02</wgt>
<wgt id='4239'>0.77212E+02</wgt>
<wgt id='4240'>0.74739E+02</wgt>
<wgt id='4241'>0.75781E+02</wgt>
<wgt id='4242'>0.76816E+02</wgt>
<wgt id='4243'>0.76262E+02</wgt>
<wgt id='4244'>0.76392E+02</wgt>
<wgt id='4245'>0.75349E+02</wgt>
<wgt id='4246'>0.77229E+02</wgt>
<wgt id='4247'>0.76020E+02</wgt>
<wgt id='4248'>0.76422E+02</wgt>
<wgt id='4249'>0.77291E+02</wgt>
<wgt id='4250'>0.75054E+02</wgt>
<wgt id='4251'>0.75128E+02</wgt>
<wgt id='4252'>0.76920E+02</wgt>
<wgt id='4253'>0.75786E+02</wgt>
<wgt id='4254'>0.76651E+02</wgt>
<wgt id='4255'>0.76287E+02</wgt>
<wgt id='4256'>0.76131E+02</wgt>
<wgt id='4257'>0.74861E+02</wgt>
<wgt id='4258'>0.76692E+02</wgt>
<wgt id='4300'>0.78533E+02</wgt>
<wgt id='4301'>0.77581E+02</wgt>
<wgt id='5000'>0.79075E+02</wgt>
<wgt id='5001'>0.79103E+02</wgt>
<wgt id='5002'>0.79038E+02</wgt>
<wgt id='5003'>0.79093E+02</wgt>
<wgt id='5004'>0.79058E+02</wgt>
<wgt id='5005'>0.79069E+02</wgt>
<wgt id='5006'>0.79084E+02</wgt>
<wgt id='5007'>0.79122E+02</wgt>
<wgt id='5008'>0.79036E+02</wgt>
<wgt id='5009'>0.79175E+02</wgt>
<wgt id='5010'>0.78972E+02</wgt>
<wgt id='5011'>0.79225E+02</wgt>
<wgt id='5012'>0.78930E+02</wgt>
<wgt id='5013'>0.79179E+02</wgt>
<wgt id='5014'>0.79000E+02</wgt>
<wgt id='5015'>0.78696E+02</wgt>
<wgt id='5016'>0.78696E+02</wgt>
<wgt id='5017'>0.79527E+02</wgt>
<wgt id='5018'>0.78769E+02</wgt>
<wgt id='5019'>0.79390E+02</wgt>
<wgt id='5020'>0.78643E+02</wgt>
<wgt id='5021'>0.79173E+02</wgt>
<wgt id='5022'>0.78920E+02</wgt>
<wgt id='5023'>0.78970E+02</wgt>
<wgt id='5024'>0.79325E+02</wgt>
<wgt id='5025'>0.78742E+02</wgt>
<wgt id='5026'>0.79449E+02</wgt>
<wgt id='5027'>0.79103E+02</wgt>
<wgt id='5028'>0.79000E+02</wgt>
<wgt id='5029'>0.79600E+02</wgt>
<wgt id='5030'>0.78776E+02</wgt>
<wgt id='5031'>0.78835E+02</wgt>
<wgt id='5032'>0.79794E+02</wgt>
<wgt id='5033'>0.79092E+02</wgt>
<wgt id='5034'>0.79056E+02</wgt>
<wgt id='5035'>0.79075E+02</wgt>
<wgt id='5036'>0.79077E+02</wgt>
<wgt id='5037'>0.79009E+02</wgt>
<wgt id='5038'>0.79113E+02</wgt>
<wgt id='5039'>0.79282E+02</wgt>
<wgt id='5040'>0.78565E+02</wgt>
<wgt id='5041'>0.79420E+02</wgt>
<wgt id='5042'>0.78731E+02</wgt>
<wgt id='5043'>0.79146E+02</wgt>
<wgt id='5044'>0.79059E+02</wgt>
<wgt id='5045'>0.78928E+02</wgt>
<wgt id='5046'>0.79221E+02</wgt>
<wgt id='5047'>0.79102E+02</wgt>
<wgt id='5048'>0.78955E+02</wgt>
<wgt id='5049'>0.79048E+02</wgt>
<wgt id='5050'>0.79125E+02</wgt>
<wgt id='5051'>0.79191E+02</wgt>
<wgt id='5052'>0.78959E+02</wgt>
<wgt id='5053'>0.78890E+02</wgt>
<wgt id='5054'>0.79200E+02</wgt>
<wgt id='5055'>0.79145E+02</wgt>
<wgt id='5056'>0.79087E+02</wgt>
<wgt id='5057'>0.78852E+02</wgt>
<wgt id='5058'>0.79230E+02</wgt>
<wgt id='5059'>0.79067E+02</wgt>
<wgt id='5060'>0.79090E+02</wgt>
<wgt id='5061'>0.79269E+02</wgt>
<wgt id='5062'>0.79077E+02</wgt>
<wgt id='5063'>0.79321E+02</wgt>
<wgt id='5064'>0.79021E+02</wgt>
<wgt id='5100'>0.79075E+02</wgt>
<wgt id='5101'>0.79108E+02</wgt>
<wgt id='6000'>0.79290E+02</wgt>
<wgt id='6001'>0.79464E+02</wgt>
<wgt id='6002'>0.79479E+02</wgt>
<wgt id='6003'>0.79270E+02</wgt>
<wgt id='6004'>0.79195E+02</wgt>
<wgt id='6005'>0.79209E+02</wgt>
<wgt id='6006'>0.79549E+02</wgt>
<wgt id='6007'>0.79197E+02</wgt>
<wgt id='6008'>0.78370E+02</wgt>
<wgt id='6009'>0.79570E+02</wgt>
<wgt id='6010'>0.78270E+02</wgt>
<wgt id='6011'>0.79255E+02</wgt>
<wgt id='6012'>0.79535E+02</wgt>
<wgt id='6013'>0.79085E+02</wgt>
<wgt id='6014'>0.79251E+02</wgt>
<wgt id='6015'>0.78830E+02</wgt>
<wgt id='6016'>0.79325E+02</wgt>
<wgt id='6017'>0.79320E+02</wgt>
<wgt id='6018'>0.79199E+02</wgt>
<wgt id='6019'>0.79319E+02</wgt>
<wgt id='6020'>0.79466E+02</wgt>
<wgt id='6021'>0.79361E+02</wgt>
<wgt id='6022'>0.79272E+02</wgt>
<wgt id='6023'>0.79323E+02</wgt>
<wgt id='6024'>0.79355E+02</wgt>
<wgt id='6025'>0.79498E+02</wgt>
<wgt id='6026'>0.79335E+02</wgt>
<wgt id='6027'>0.79319E+02</wgt>
<wgt id='6028'>0.79177E+02</wgt>
<wgt id='6029'>0.79188E+02</wgt>
<wgt id='6030'>0.79928E+02</wgt>
<wgt id='6031'>0.79145E+02</wgt>
<wgt id='6032'>0.79324E+02</wgt>
<wgt id='6033'>0.79194E+02</wgt>
<wgt id='6034'>0.79477E+02</wgt>
<wgt id='6035'>0.79333E+02</wgt>
<wgt id='6036'>0.79661E+02</wgt>
<wgt id='6037'>0.79306E+02</wgt>
<wgt id='6038'>0.79349E+02</wgt>
<wgt id='6039'>0.79394E+02</wgt>
<wgt id='6040'>0.79287E+02</wgt>
<wgt id='6041'>0.78276E+02</wgt>
<wgt id='6042'>0.79912E+02</wgt>
<wgt id='7000'>0.78909E+02</wgt>
<wgt id='7001'>0.78404E+02</wgt>
<wgt id='7002'>0.78564E+02</wgt>
<wgt id='7003'>0.78479E+02</wgt>
<wgt id='7004'>0.78490E+02</wgt>
<wgt id='7005'>0.78609E+02</wgt>
<wgt id='7006'>0.78360E+02</wgt>
<wgt id='7007'>0.78957E+02</wgt>
<wgt id='7008'>0.78025E+02</wgt>
<wgt id='7009'>0.78232E+02</wgt>
<wgt id='7010'>0.78747E+02</wgt>
<wgt id='7011'>0.78741E+02</wgt>
<wgt id='7012'>0.78229E+02</wgt>
<wgt id='7013'>0.78329E+02</wgt>
<wgt id='7014'>0.78633E+02</wgt>
<wgt id='7015'>0.78359E+02</wgt>
<wgt id='7016'>0.78401E+02</wgt>
<wgt id='7017'>0.78505E+02</wgt>
<wgt id='7018'>0.78463E+02</wgt>
<wgt id='7019'>0.78311E+02</wgt>
<wgt id='7020'>0.78663E+02</wgt>
<wgt id='7021'>0.78362E+02</wgt>
<wgt id='7022'>0.78571E+02</wgt>
<wgt id='7023'>0.78303E+02</wgt>
<wgt id='7024'>0.78676E+02</wgt>
<wgt id='7025'>0.77776E+02</wgt>
<wgt id='7026'>0.79098E+02</wgt>
<wgt id='7027'>0.78235E+02</wgt>
<wgt id='7028'>0.78790E+02</wgt>
<wgt id='8000'>0.79566E+02</wgt>
<wgt id='8001'>0.79555E+02</wgt>
<wgt id='8002'>0.79590E+02</wgt>
<wgt id='8003'>0.79570E+02</wgt>
<wgt id='8004'>0.79564E+02</wgt>
<wgt id='8005'>0.79412E+02</wgt>
<wgt id='8006'>0.79618E+02</wgt>
<wgt id='8007'>0.79670E+02</wgt>
<wgt id='8008'>0.79738E+02</wgt>
<wgt id='8009'>0.79892E+02</wgt>
<wgt id='8010'>0.79495E+02</wgt>
<wgt id='8011'>0.79566E+02</wgt>
<wgt id='8012'>0.79308E+02</wgt>
<wgt id='8013'>0.79441E+02</wgt>
<wgt id='8014'>0.79703E+02</wgt>
<wgt id='8015'>0.79520E+02</wgt>
<wgt id='8016'>0.79624E+02</wgt>
<wgt id='8017'>0.79601E+02</wgt>
<wgt id='8018'>0.79706E+02</wgt>
<wgt id='8019'>0.79670E+02</wgt>
<wgt id='8020'>0.79427E+02</wgt>
<wgt id='8021'>0.79526E+02</wgt>
<wgt id='8022'>0.79307E+02</wgt>
<wgt id='8023'>0.79551E+02</wgt>
<wgt id='8024'>0.79466E+02</wgt>
<wgt id='8025'>0.79653E+02</wgt>
<wgt id='8026'>0.79700E+02</wgt>
<wgt id='8027'>0.79556E+02</wgt>
<wgt id='8028'>0.79632E+02</wgt>
<wgt id='8029'>0.79224E+02</wgt>
<wgt id='3000'>0.81104E+02</wgt>
<wgt id='3001'>0.80446E+02</wgt>
<wgt id='3002'>0.80293E+02</wgt>
<wgt id='3003'>0.82706E+02</wgt>
<wgt id='3004'>0.81830E+02</wgt>
<wgt id='3005'>0.80886E+02</wgt>
<wgt id='3006'>0.83390E+02</wgt>
<wgt id='3007'>0.80553E+02</wgt>
<wgt id='3008'>0.80174E+02</wgt>
<wgt id='3009'>0.82222E+02</wgt>
<wgt id='3010'>0.82751E+02</wgt>
<wgt id='3011'>0.82633E+02</wgt>
<wgt id='3012'>0.81082E+02</wgt>
<wgt id='3013'>0.80331E+02</wgt>
<wgt id='3014'>0.80127E+02</wgt>
<wgt id='3015'>0.81888E+02</wgt>
<wgt id='3016'>0.82455E+02</wgt>
<wgt id='3017'>0.82702E+02</wgt>
<wgt id='3018'>0.80747E+02</wgt>
<wgt id='3019'>0.79757E+02</wgt>
<wgt id='3020'>0.80879E+02</wgt>
<wgt id='3021'>0.79505E+02</wgt>
<wgt id='3022'>0.79536E+02</wgt>
<wgt id='3023'>0.79706E+02</wgt>
<wgt id='3024'>0.79647E+02</wgt>
<wgt id='3025'>0.79773E+02</wgt>
<wgt id='3026'>0.80838E+02</wgt>
<wgt id='3027'>0.80052E+02</wgt>
<wgt id='3028'>0.81066E+02</wgt>
<wgt id='3029'>0.82413E+02</wgt>
<wgt id='3030'>0.82869E+02</wgt>
<wgt id='3031'>0.81749E+02</wgt>
<wgt id='3032'>0.82203E+02</wgt>
<wgt id='3033'>0.80252E+02</wgt>
<wgt id='3034'>0.80660E+02</wgt>
<wgt id='3035'>0.82475E+02</wgt>
<wgt id='3036'>0.81055E+02</wgt>
<wgt id='3037'>0.81175E+02</wgt>
<wgt id='3038'>0.80776E+02</wgt>
<wgt id='3039'>0.81544E+02</wgt>
<wgt id='3040'>0.80871E+02</wgt>
<wgt id='3041'>0.81540E+02</wgt>
<wgt id='3042'>0.80179E+02</wgt>
<wgt id='3043'>0.80974E+02</wgt>
<wgt id='3044'>0.80472E+02</wgt>
<wgt id='3045'>0.81260E+02</wgt>
<wgt id='3046'>0.81671E+02</wgt>
<wgt id='3047'>0.79297E+02</wgt>
<wgt id='3048'>0.79184E+02</wgt>
<wgt id='3049'>0.81922E+02</wgt>
<wgt id='3050'>0.82478E+02</wgt>
<wgt id='3051'>0.81185E+02</wgt>
<wgt id='3052'>0.80046E+02</wgt>
<wgt id='3053'>0.80812E+02</wgt>
<wgt id='3054'>0.81114E+02</wgt>
<wgt id='3055'>0.79410E+02</wgt>
<wgt id='3056'>0.80601E+02</wgt>
<wgt id='3057'>0.80550E+02</wgt>
<wgt id='3058'>0.79550E+02</wgt>
<wgt id='3059'>0.83088E+02</wgt>
<wgt id='3060'>0.81387E+02</wgt>
<wgt id='3061'>0.81035E+02</wgt>
<wgt id='3062'>0.80752E+02</wgt>
<wgt id='3063'>0.79238E+02</wgt>
<wgt id='3064'>0.80567E+02</wgt>
<wgt id='3065'>0.80464E+02</wgt>
<wgt id='3066'>0.81334E+02</wgt>
<wgt id='3067'>0.79305E+02</wgt>
<wgt id='3068'>0.82056E+02</wgt>
<wgt id='3069'>0.80527E+02</wgt>
<wgt id='3070'>0.79485E+02</wgt>
<wgt id='3071'>0.82733E+02</wgt>
<wgt id='3072'>0.81649E+02</wgt>
<wgt id='3073'>0.82149E+02</wgt>
<wgt id='3074'>0.82599E+02</wgt>
<wgt id='3075'>0.82452E+02</wgt>
<wgt id='3076'>0.82894E+02</wgt>
<wgt id='3077'>0.80103E+02</wgt>
<wgt id='3078'>0.81989E+02</wgt>
<wgt id='3079'>0.81129E+02</wgt>
<wgt id='3080'>0.80738E+02</wgt>
<wgt id='3081'>0.79224E+02</wgt>
<wgt id='3082'>0.82455E+02</wgt>
<wgt id='3083'>0.81040E+02</wgt>
<wgt id='3084'>0.81183E+02</wgt>
<wgt id='3085'>0.82813E+02</wgt>
<wgt id='3086'>0.79170E+02</wgt>
<wgt id='3087'>0.82003E+02</wgt>
<wgt id='3088'>0.82213E+02</wgt>
<wgt id='3089'>0.83957E+02</wgt>
<wgt id='3090'>0.80675E+02</wgt>
<wgt id='3091'>0.80285E+02</wgt>
<wgt id='3092'>0.82579E+02</wgt>
<wgt id='3093'>0.81929E+02</wgt>
<wgt id='3094'>0.80912E+02</wgt>
<wgt id='3095'>0.80758E+02</wgt>
<wgt id='3096'>0.80365E+02</wgt>
<wgt id='3097'>0.79969E+02</wgt>
<wgt id='3098'>0.81924E+02</wgt>
<wgt id='3099'>0.80419E+02</wgt>
<wgt id='3100'>0.80782E+02</wgt>
<wgt id='3200'>0.78799E+02</wgt>
<wgt id='3201'>0.79146E+02</wgt>
<wgt id='3202'>0.77974E+02</wgt>
<wgt id='3203'>0.78612E+02</wgt>
<wgt id='3204'>0.78253E+02</wgt>
<wgt id='3205'>0.79346E+02</wgt>
<wgt id='3206'>0.79162E+02</wgt>
<wgt id='3207'>0.79431E+02</wgt>
<wgt id='3208'>0.79238E+02</wgt>
<wgt id='3209'>0.78644E+02</wgt>
<wgt id='3210'>0.78745E+02</wgt>
<wgt id='3211'>0.79784E+02</wgt>
<wgt id='3212'>0.77956E+02</wgt>
<wgt id='3213'>0.78337E+02</wgt>
<wgt id='3214'>0.77889E+02</wgt>
<wgt id='3215'>0.78797E+02</wgt>
<wgt id='3216'>0.79212E+02</wgt>
<wgt id='3217'>0.79142E+02</wgt>
<wgt id='3218'>0.78881E+02</wgt>
<wgt id='3219'>0.78935E+02</wgt>
<wgt id='3220'>0.78069E+02</wgt>
<wgt id='3221'>0.79511E+02</wgt>
<wgt id='3222'>0.79512E+02</wgt>
<wgt id='3223'>0.78789E+02</wgt>
<wgt id='3224'>0.78448E+02</wgt>
<wgt id='3225'>0.79290E+02</wgt>
<wgt id='3226'>0.78819E+02</wgt>
<wgt id='3227'>0.78079E+02</wgt>
<wgt id='3228'>0.78169E+02</wgt>
<wgt id='3229'>0.79218E+02</wgt>
<wgt id='3230'>0.79338E+02</wgt>
<wgt id='3231'>0.79044E+02</wgt>
<wgt id='3232'>0.79214E+02</wgt>
<wgt id='3233'>0.79039E+02</wgt>
<wgt id='3234'>0.78999E+02</wgt>
<wgt id='3235'>0.78281E+02</wgt>
<wgt id='3236'>0.78127E+02</wgt>
<wgt id='3237'>0.78509E+02</wgt>
<wgt id='3238'>0.78702E+02</wgt>
<wgt id='3239'>0.78452E+02</wgt>
<wgt id='3240'>0.78932E+02</wgt>
<wgt id='3241'>0.79498E+02</wgt>
<wgt id='3242'>0.78064E+02</wgt>
<wgt id='3243'>0.77994E+02</wgt>
<wgt id='3244'>0.78523E+02</wgt>
<wgt id='3245'>0.79313E+02</wgt>
<wgt id='3246'>0.78284E+02</wgt>
<wgt id='3247'>0.78605E+02</wgt>
<wgt id='3248'>0.78449E+02</wgt>
<wgt id='3249'>0.78644E+02</wgt>
<wgt id='3250'>0.79307E+02</wgt>
<wgt id='3251'>0.78817E+02</wgt>
<wgt id='3252'>0.78852E+02</wgt>
<wgt id='3253'>0.78857E+02</wgt>
<wgt id='3254'>0.78866E+02</wgt>
<wgt id='3255'>0.78743E+02</wgt>
<wgt id='3256'>0.78050E+02</wgt>
<wgt id='3257'>0.78701E+02</wgt>
<wgt id='3258'>0.79212E+02</wgt>
<wgt id='3259'>0.78873E+02</wgt>
<wgt id='3260'>0.78690E+02</wgt>
<wgt id='3261'>0.79100E+02</wgt>
<wgt id='3262'>0.78382E+02</wgt>
<wgt id='3263'>0.78958E+02</wgt>
<wgt id='3264'>0.79172E+02</wgt>
<wgt id='3265'>0.79365E+02</wgt>
<wgt id='3266'>0.78509E+02</wgt>
<wgt id='3267'>0.78718E+02</wgt>
<wgt id='3268'>0.79668E+02</wgt>
<wgt id='3269'>0.78930E+02</wgt>
<wgt id='3270'>0.79039E+02</wgt>
<wgt id='3271'>0.78963E+02</wgt>
<wgt id='3272'>0.79275E+02</wgt>
<wgt id='3273'>0.78860E+02</wgt>
<wgt id='3274'>0.79136E+02</wgt>
<wgt id='3275'>0.78933E+02</wgt>
<wgt id='3276'>0.78700E+02</wgt>
<wgt id='3277'>0.78323E+02</wgt>
<wgt id='3278'>0.78713E+02</wgt>
<wgt id='3279'>0.79330E+02</wgt>
<wgt id='3280'>0.78552E+02</wgt>
<wgt id='3281'>0.78941E+02</wgt>
<wgt id='3282'>0.79170E+02</wgt>
<wgt id='3283'>0.78942E+02</wgt>
<wgt id='3284'>0.78767E+02</wgt>
<wgt id='3285'>0.78152E+02</wgt>
<wgt id='3286'>0.78823E+02</wgt>
<wgt id='3287'>0.78369E+02</wgt>
<wgt id='3288'>0.79330E+02</wgt>
<wgt id='3289'>0.80131E+02</wgt>
<wgt id='3290'>0.79780E+02</wgt>
<wgt id='3291'>0.77605E+02</wgt>
<wgt id='3292'>0.77771E+02</wgt>
<wgt id='3293'>0.78407E+02</wgt>
<wgt id='3294'>0.77617E+02</wgt>
<wgt id='3295'>0.78213E+02</wgt>
<wgt id='3296'>0.79924E+02</wgt>
<wgt id='3297'>0.78663E+02</wgt>
<wgt id='3298'>0.78889E+02</wgt>
<wgt id='3299'>0.78309E+02</wgt>
<wgt id='3300'>0.79161E+02</wgt>
<wgt id='3301'>0.77513E+02</wgt>
<wgt id='3302'>0.80000E+02</wgt>
<wgt id='3400'>0.78738E+02</wgt>
<wgt id='3401'>0.78725E+02</wgt>
<wgt id='3402'>0.78399E+02</wgt>
<wgt id='3403'>0.79693E+02</wgt>
<wgt id='3404'>0.80034E+02</wgt>
<wgt id='3405'>0.79381E+02</wgt>
<wgt id='3406'>0.78908E+02</wgt>
<wgt id='3407'>0.78314E+02</wgt>
<wgt id='3408'>0.80312E+02</wgt>
<wgt id='3409'>0.79692E+02</wgt>
<wgt id='3410'>0.78565E+02</wgt>
<wgt id='3411'>0.79373E+02</wgt>
<wgt id='3412'>0.79554E+02</wgt>
<wgt id='3413'>0.78636E+02</wgt>
<wgt id='3414'>0.78450E+02</wgt>
<wgt id='3415'>0.78719E+02</wgt>
<wgt id='3416'>0.78187E+02</wgt>
<wgt id='3417'>0.79072E+02</wgt>
<wgt id='3418'>0.78215E+02</wgt>
<wgt id='3419'>0.78386E+02</wgt>
<wgt id='3420'>0.79157E+02</wgt>
<wgt id='3421'>0.79010E+02</wgt>
<wgt id='3422'>0.79566E+02</wgt>
<wgt id='3423'>0.79250E+02</wgt>
<wgt id='3424'>0.79086E+02</wgt>
<wgt id='3425'>0.78408E+02</wgt>
<wgt id='3426'>0.79166E+02</wgt>
<wgt id='3427'>0.78737E+02</wgt>
<wgt id='3428'>0.79792E+02</wgt>
<wgt id='3429'>0.78134E+02</wgt>
<wgt id='3430'>0.79281E+02</wgt>
<wgt id='3431'>0.78910E+02</wgt>
<wgt id='3432'>0.78792E+02</wgt>
<wgt id='3433'>0.77366E+02</wgt>
<wgt id='3434'>0.78621E+02</wgt>
<wgt id='3435'>0.78706E+02</wgt>
<wgt id='3436'>0.78865E+02</wgt>
<wgt id='3437'>0.78867E+02</wgt>
<wgt id='3438'>0.78011E+02</wgt>
<wgt id='3439'>0.79274E+02</wgt>
<wgt id='3440'>0.78771E+02</wgt>
<wgt id='3441'>0.78614E+02</wgt>
<wgt id='3442'>0.77168E+02</wgt>
<wgt id='3443'>0.78539E+02</wgt>
<wgt id='3444'>0.78454E+02</wgt>
<wgt id='3445'>0.78347E+02</wgt>
<wgt id='3446'>0.79180E+02</wgt>
<wgt id='3447'>0.80222E+02</wgt>
<wgt id='3448'>0.79387E+02</wgt>
<wgt id='3449'>0.79264E+02</wgt>
<wgt id='3450'>0.78620E+02</wgt>
<wgt id='3451'>0.79912E+02</wgt>
<wgt id='3452'>0.78341E+02</wgt>
<wgt id='3453'>0.78230E+02</wgt>
<wgt id='3454'>0.77803E+02</wgt>
<wgt id='3455'>0.79716E+02</wgt>
<wgt id='3456'>0.79104E+02</wgt>
<wgt id='3457'>0.79453E+02</wgt>
<wgt id='3458'>0.78814E+02</wgt>
<wgt id='3459'>0.78440E+02</wgt>
<wgt id='3460'>0.78419E+02</wgt>
<wgt id='3461'>0.78130E+02</wgt>
<wgt id='3462'>0.78135E+02</wgt>
<wgt id='3463'>0.77845E+02</wgt>
<wgt id='3464'>0.79280E+02</wgt>
<wgt id='3465'>0.78420E+02</wgt>
<wgt id='3466'>0.78972E+02</wgt>
<wgt id='3467'>0.78535E+02</wgt>
<wgt id='3468'>0.77568E+02</wgt>
<wgt id='3469'>0.78812E+02</wgt>
<wgt id='3470'>0.78875E+02</wgt>
<wgt id='3471'>0.78711E+02</wgt>
<wgt id='3472'>0.78182E+02</wgt>
<wgt id='3473'>0.79000E+02</wgt>
<wgt id='3474'>0.78578E+02</wgt>
<wgt id='3475'>0.78520E+02</wgt>
<wgt id='3476'>0.79064E+02</wgt>
<wgt id='3477'>0.77889E+02</wgt>
<wgt id='3478'>0.78951E+02</wgt>
<wgt id='3479'>0.79788E+02</wgt>
<wgt id='3480'>0.78244E+02</wgt>
<wgt id='3481'>0.79051E+02</wgt>
<wgt id='3482'>0.78216E+02</wgt>
<wgt id='3483'>0.77341E+02</wgt>
<wgt id='3484'>0.78492E+02</wgt>
<wgt id='3485'>0.78514E+02</wgt>
<wgt id='3486'>0.77422E+02</wgt>
<wgt id='3487'>0.78879E+02</wgt>
<wgt id='3488'>0.79722E+02</wgt>
<wgt id='3489'>0.77935E+02</wgt>
<wgt id='3490'>0.78847E+02</wgt>
<wgt id='3491'>0.78930E+02</wgt>
<wgt id='3492'>0.79119E+02</wgt>
<wgt id='3493'>0.78256E+02</wgt>
<wgt id='3494'>0.77172E+02</wgt>
<wgt id='3495'>0.78841E+02</wgt>
<wgt id='3496'>0.77648E+02</wgt>
<wgt id='3497'>0.78103E+02</wgt>
<wgt id='3498'>0.79127E+02</wgt>
<wgt id='3499'>0.78813E+02</wgt>
<wgt id='3500'>0.79500E+02</wgt>
</rwgt>
</event>
<event>
     13 322200  8.11039E+01  4.22810E+01 -1.00000E+00  1.41225E-01
      21    -1     0     0   502   503  0.000000000E+00  0.000000000E+00  3.058383068E+02  3.058383068E+02  0.000000000E+00  0.00000E+00  9.000E+00
      21    -1     0     0   504   505  0.000000000E+00  0.000000000E+00 -7.965379851E+02  7.965379851E+02  0.000000000E+00  0.00000E+00  9.000E+00
       6     2     1     2   502     0 -5.254891536E+01 -7.686646582E+01  2.337035214E+02  3.057703830E+02  1.738054923E+02  0.00000E+00  9.000E+00
      -6     2     1     2     0   505  6.481241755E+01  3.640301594E+01 -2.788936270E+02  3.490944971E+02  1.963656886E+02  0.00000E+00  9.000E+00
      21     1     1     2   504   503 -1.226350219E+01  4.046344989E+01 -4.455095728E+02  4.475114118E+02  0.000000000E+00  0.00000E+00  9.000E+00
      24     2     3     3     0     0 -3.419417579E+01  2.661055263E+01  1.173616342E+02  1.489092083E+02  8.076407596E+01  0.00000E+00  9.000E+00
       5     1     3     3   502     0 -1.835473956E+01 -1.034770185E+02  1.163418872E+02  1.568611747E+02  5.060000000E+00  0.00000E+00 -1.000E+00
     -24     2     4     4     0     0  1.148034138E+02  9.264358028E+00 -2.467722131E+02  2.835735440E+02  7.906818305E+01  0.00000E+00  9.000E+00
      -5     1     4     4     0   505 -4.999099621E+01  2.713865791E+01 -3.212141392E+01  6.552095304E+01  5.060000000E+00  0.00000E+00  1.000E+00
     -13     1     6     6     0     0  7.737062976E+00  3.596373322E+01  9.185200116E+01  9.894469941E+01  1.057000000E-01  0.00000E+00  1.000E+00
      14     1     6     6     0     0 -4.193123877E+01 -9.353180589E+00  2.550963306E+01  4.996450891E+01  0.000000000E+00  0.00000E+00 -1.000E+00
      13     1     8     8     0     0  1.957261557E+01  2.095399639E+01 -1.265561877E+02  1.297637741E+02  1.057000000E-01  0.00000E+00 -1.000E+00
     -14     1     8     8     0     0  9.523079819E+01 -1.168963836E+01 -1.202160254E+02  1.538097700E+02  0.000000000E+00  0.00000E+00  1.000E+00
#rwgt            1           1   1067.4715746614283               10        9749           0
<rwgt>
<wgt id='1001'>0.81104E+02</wgt>
<wgt id='1002'>0.75310E+02</wgt>
<wgt id='1003'>0.89599E+02</wgt>
<wgt id='1004'>0.75216E+02</wgt>
<wgt id='1005'>0.69781E+02</wgt>
<wgt id='1006'>0.82821E+02</wgt>
<wgt id='1007'>0.85895E+02</wgt>
<wgt id='1008'>0.79865E+02</wgt>
<wgt id='1009'>0.95371E+02</wgt>
<wgt id='2000'>0.81104E+02</wgt>
<wgt id='2001'>0.81207E+02</wgt>
<wgt id='2002'>0.80950E+02</wgt>
<wgt id='2003'>0.81095E+02</wgt>
<wgt id='2004'>0.81226E+02</wgt>
<wgt id='2005'>0.81081E+02</wgt>
<wgt id='2006'>0.81216E+02</wgt>
<wgt id='2007'>0.81034E+02</wgt>
<wgt id='2008'>0.81279E+02</wgt>
<wgt id='2009'>0.80899E+02</wgt>
<wgt id='2010'>0.81064E+02</wgt>
<wgt id='2011'>0.81076E+02</wgt>
<wgt id='2012'>0.81125E+02</wgt>
<wgt id='2013'>0.81299E+02</wgt>
<wgt id='2014'>0.81443E+02</wgt>
<wgt id='2015'>0.81377E+02</wgt>
<wgt id='2016'>0.81153E+02</wgt>
<wgt id='2017'>0.81287E+02</wgt>
<wgt id='2018'>0.80717E+02</wgt>
<wgt id='2019'>0.81389E+02</wgt>
<wgt id='2020'>0.81036E+02</wgt>
<wgt id='2021'>0.80844E+02</wgt>
<wgt id='2022'>0.81058E+02</wgt>
<wgt id='2023'>0.80852E+02</wgt>
<wgt id='2024'>0.81301E+02</wgt>
<wgt id='2025'>0.80927E+02</wgt>
<wgt id='2026'>0.80932E+02</wgt>
<wgt id='2027'>0.80745E+02</wgt>
<wgt id='2028'>0.81133E+02</wgt>
<wgt id='2029'>0.80768E+02</wgt>
<wgt id='2030'>0.81100E+02</wgt>
<wgt id='2031'>0.80863E+02</wgt>
<wgt id='2032'>0.81123E+02</wgt>
<wgt id='2033'>0.81061E+02</wgt>
<wgt id='2034'>0.80975E+02</wgt>
<wgt id='2035'>0.81176E+02</wgt>
<wgt id='2036'>0.81250E+02</wgt>
<wgt id='2037'>0.81074E+02</wgt>
<wgt id='2038'>0.81052E+02</wgt>
<wgt id='2039'>0.81152E+02</wgt>
<wgt id='2040'>0.81051E+02</wgt>
<wgt id='2041'>0.81019E+02</wgt>
<wgt id='2042'>0.81121E+02</wgt>
<wgt id='2043'>0.81064E+02</wgt>
<wgt id='2044'>0.81173E+02</wgt>
<wgt id='2045'>0.81141E+02</wgt>
<wgt id='2046'>0.81060E+02</wgt>
<wgt id='2047'>0.81082E+02</wgt>
<wgt id='2048'>0.81095E+02</wgt>
<wgt id='2049'>0.81020E+02</wgt>
<wgt id='2050'>0.81082E+02</wgt>
<wgt id='2051'>0.81119E+02</wgt>
<wgt id='2052'>0.81180E+02</wgt>
<wgt id='2053'>0.81110E+02</wgt>
<wgt id='2054'>0.81105E+02</wgt>
<wgt id='2055'>0.81069E+02</wgt>
<wgt id='2056'>0.81082E+02</wgt>
<wgt id='2057'>0.81107E+02</wgt>
<wgt id='2058'>0.81132E+02</wgt>
<wgt id='2059'>0.81124E+02</wgt>
<wgt id='2060'>0.81093E+02</wgt>
<wgt id='2061'>0.81099E+02</wgt>
<wgt id='2062'>0.81163E+02</wgt>
<wgt id='2063'>0.81125E+02</wgt>
<wgt id='2064'>0.81112E+02</wgt>
<wgt id='2065'>0.81159E+02</wgt>
<wgt id='2066'>0.81076E+02</wgt>
<wgt id='2067'>0.81119E+02</wgt>
<wgt id='2068'>0.81141E+02</wgt>
<wgt id='2069'>0.81104E+02</wgt>
<wgt id='2070'>0.81124E+02</wgt>
<wgt id='2071'>0.81099E+02</wgt>
<wgt id='2072'>0.81107E+02</wgt>
<wgt id='2073'>0.81116E+02</wgt>
<wgt id='2074'>0.81076E+02</wgt>
<wgt id='2075'>0.81073E+02</wgt>
<wgt id='2076'>0.81092E+02</wgt>
<wgt id='2077'>0.81136E+02</wgt>
<wgt id='2078'>0.81136E+02</wgt>
<wgt id='2079'>0.81064E+02</wgt>
<wgt id='2080'>0.81105E+02</wgt>
<wgt id='2081'>0.81095E+02</wgt>
<wgt id='2082'>0.81128E+02</wgt>
<wgt id='2083'>0.81158E+02</wgt>
<wgt id='2084'>0.81102E+02</wgt>
<wgt id='2085'>0.81106E+02</wgt>
<wgt id='2086'>0.81134E+02</wgt>
<wgt id='2087'>0.81105E+02</wgt>
<wgt id='2088'>0.81109E+02</wgt>
<wgt id='2089'>0.81079E+02</wgt>
<wgt id='2090'>0.81126E+02</wgt>
<wgt id='2091'>0.81090E+02</wgt>
<wgt id='2092'>0.81130E+02</wgt>
<wgt id='2093'>0.81082E+02</wgt>
<wgt id='2094'>0.81108E+02</wgt>
<wgt id='2095'>0.81118E+02</wgt>
<wgt id='2096'>0.81087E+02</wgt>
<wgt id='2097'>0.81126E+02</wgt>
<wgt id='2098'>0.81104E+02</wgt>
<wgt id='2099'>0.81113E+02</wgt>
<wgt id='2100'>0.81104E+02</wgt>
<wgt id='2101'>0.78849E+02</wgt>
<wgt id='2102'>0.83417E+02</wgt>
<wgt id='2200'>0.81211E+02</wgt>
<wgt id='2201'>0.71289E+02</wgt>
<wgt id='2202'>0.73172E+02</wgt>
<wgt id='2203'>0.75408E+02</wgt>
<wgt id='2204'>0.77266E+02</wgt>
<wgt id='2205'>0.80216E+02</wgt>
<wgt id='2206'>0.82284E+02</wgt>
<wgt id='2207'>0.85005E+02</wgt>
<wgt id='2208'>0.87114E+02</wgt>
<wgt id='2300'>0.84369E+02</wgt>
<wgt id='2301'>0.84377E+02</wgt>
<wgt id='2302'>0.84372E+02</wgt>
<wgt id='2303'>0.84385E+02</wgt>
<wgt id='2304'>0.84518E+02</wgt>
<wgt id='2305'>0.84439E+02</wgt>
<wgt id='2306'>0.84312E+02</wgt>
<wgt id='2307'>0.84553E+02</wgt>
<wgt id='2308'>0.84373E+02</wgt>
<wgt id='2309'>0.84616E+02</wgt>
<wgt id='2310'>0.84373E+02</wgt>
<wgt id='2311'>0.84177E+02</wgt>
<wgt id='2312'>0.84310E+02</wgt>
<wgt id='2313'>0.84638E+02</wgt>
<wgt id='2314'>0.84401E+02</wgt>
<wgt id='2315'>0.84143E+02</wgt>
<wgt id='2316'>0.84380E+02</wgt>
<wgt id='2317'>0.84324E+02</wgt>
<wgt id='2318'>0.84546E+02</wgt>
<wgt id='2319'>0.84383E+02</wgt>
<wgt id='2320'>0.84177E+02</wgt>
<wgt id='2321'>0.84160E+02</wgt>
<wgt id='2322'>0.84378E+02</wgt>
<wgt id='2323'>0.84234E+02</wgt>
<wgt id='2324'>0.84038E+02</wgt>
<wgt id='2325'>0.84450E+02</wgt>
<wgt id='2326'>0.84621E+02</wgt>
<wgt id='2327'>0.84360E+02</wgt>
<wgt id='2328'>0.83920E+02</wgt>
<wgt id='2329'>0.84074E+02</wgt>
<wgt id='2330'>0.84689E+02</wgt>
<wgt id='2331'>0.84511E+02</wgt>
<wgt id='2332'>0.84632E+02</wgt>
<wgt id='2333'>0.84754E+02</wgt>
<wgt id='2334'>0.84429E+02</wgt>
<wgt id='2335'>0.84778E+02</wgt>
<wgt id='2336'>0.84397E+02</wgt>
<wgt id='2337'>0.84293E+02</wgt>
<wgt id='2338'>0.84353E+02</wgt>
<wgt id='2339'>0.84169E+02</wgt>
<wgt id='2340'>0.84272E+02</wgt>
<wgt id='2341'>0.84443E+02</wgt>
<wgt id='2342'>0.84406E+02</wgt>
<wgt id='2343'>0.84410E+02</wgt>
<wgt id='2344'>0.84307E+02</wgt>
<wgt id='2345'>0.84349E+02</wgt>
<wgt id='2346'>0.84482E+02</wgt>
<wgt id='2347'>0.84443E+02</wgt>
<wgt id='2348'>0.84279E+02</wgt>
<wgt id='2349'>0.84383E+02</wgt>
<wgt id='2350'>0.84276E+02</wgt>
<wgt id='2351'>0.84517E+02</wgt>
<wgt id='2352'>0.84315E+02</wgt>
<wgt id='2353'>0.84335E+02</wgt>
<wgt id='2354'>0.84386E+02</wgt>
<wgt id='2355'>0.84435E+02</wgt>
<wgt id='2356'>0.84365E+02</wgt>
<wgt id='2357'>0.84351E+02</wgt>
<wgt id='2358'>0.84348E+02</wgt>
<wgt id='2359'>0.84360E+02</wgt>
<wgt id='2360'>0.84391E+02</wgt>
<wgt id='2361'>0.84374E+02</wgt>
<wgt id='2362'>0.84338E+02</wgt>
<wgt id='2363'>0.84400E+02</wgt>
<wgt id='2364'>0.84386E+02</wgt>
<wgt id='2365'>0.84379E+02</wgt>
<wgt id='2366'>0.84387E+02</wgt>
<wgt id='2367'>0.84396E+02</wgt>
<wgt id='2368'>0.84360E+02</wgt>
<wgt id='2369'>0.84320E+02</wgt>
<wgt id='2370'>0.84360E+02</wgt>
<wgt id='2371'>0.84388E+02</wgt>
<wgt id='2372'>0.84373E+02</wgt>
<wgt id='2373'>0.84338E+02</wgt>
<wgt id='2374'>0.84480E+02</wgt>
<wgt id='2375'>0.84350E+02</wgt>
<wgt id='2376'>0.84396E+02</wgt>
<wgt id='2377'>0.84401E+02</wgt>
<wgt id='2378'>0.84395E+02</wgt>
<wgt id='2379'>0.84297E+02</wgt>
<wgt id='2380'>0.84296E+02</wgt>
<wgt id='2381'>0.84332E+02</wgt>
<wgt id='2382'>0.84312E+02</wgt>
<wgt id='2383'>0.84395E+02</wgt>
<wgt id='2384'>0.84385E+02</wgt>
<wgt id='2385'>0.84361E+02</wgt>
<wgt id='2386'>0.84359E+02</wgt>
<wgt id='2387'>0.84366E+02</wgt>
<wgt id='2388'>0.84360E+02</wgt>
<wgt id='2389'>0.84365E+02</wgt>
<wgt id='2390'>0.84324E+02</wgt>
<wgt id='2391'>0.84349E+02</wgt>
<wgt id='2392'>0.84366E+02</wgt>
<wgt id='2393'>0.84397E+02</wgt>
<wgt id='2394'>0.84398E+02</wgt>
<wgt id='2395'>0.84358E+02</wgt>
<wgt id='2396'>0.84359E+02</wgt>
<wgt id='2397'>0.84350E+02</wgt>
<wgt id='2398'>0.84384E+02</wgt>
<wgt id='2399'>0.84380E+02</wgt>
<wgt id='2400'>0.84383E+02</wgt>
<wgt id='2401'>0.82221E+02</wgt>
<wgt id='2402'>0.86363E+02</wgt>
<wgt id='2500'>0.81834E+02</wgt>
<wgt id='2501'>0.86793E+02</wgt>
<wgt id='2600'>0.78891E+02</wgt>
<wgt id='2601'>0.78927E+02</wgt>
<wgt id='2602'>0.78723E+02</wgt>
<wgt id='2603'>0.78853E+02</wgt>
<wgt id='2604'>0.78823E+02</wgt>
<wgt id='2605'>0.78780E+02</wgt>
<wgt id='2606'>0.78787E+02</wgt>
<wgt id='2607'>0.78928E+02</wgt>
<wgt id='2608'>0.78841E+02</wgt>
<wgt id='2609'>0.78780E+02</wgt>
<wgt id='2610'>0.78851E+02</wgt>
<wgt id='2611'>0.78800E+02</wgt>
<wgt id='2612'>0.79178E+02</wgt>
<wgt id='2613'>0.78835E+02</wgt>
<wgt id='2614'>0.78849E+02</wgt>
<wgt id='2615'>0.78713E+02</wgt>
<wgt id='2616'>0.78845E+02</wgt>
<wgt id='2617'>0.78720E+02</wgt>
<wgt id='2618'>0.78664E+02</wgt>
<wgt id='2619'>0.78942E+02</wgt>
<wgt id='2620'>0.78887E+02</wgt>
<wgt id='2621'>0.78850E+02</wgt>
<wgt id='2622'>0.78939E+02</wgt>
<wgt id='2623'>0.78880E+02</wgt>
<wgt id='2624'>0.78905E+02</wgt>
<wgt id='2625'>0.78811E+02</wgt>
<wgt id='2626'>0.78901E+02</wgt>
<wgt id='2627'>0.78828E+02</wgt>
<wgt id='2628'>0.78909E+02</wgt>
<wgt id='2629'>0.78901E+02</wgt>
<wgt id='2630'>0.78875E+02</wgt>
<wgt id='2631'>0.78984E+02</wgt>
<wgt id='2632'>0.78853E+02</wgt>
<wgt id='2633'>0.78930E+02</wgt>
<wgt id='2634'>0.79010E+02</wgt>
<wgt id='2635'>0.78871E+02</wgt>
<wgt id='2636'>0.78880E+02</wgt>
<wgt id='2637'>0.78854E+02</wgt>
<wgt id='2638'>0.78916E+02</wgt>
<wgt id='2639'>0.78874E+02</wgt>
<wgt id='2640'>0.78935E+02</wgt>
<wgt id='2641'>0.78875E+02</wgt>
<wgt id='2642'>0.78887E+02</wgt>
<wgt id='2643'>0.78934E+02</wgt>
<wgt id='2644'>0.78873E+02</wgt>
<wgt id='2645'>0.78866E+02</wgt>
<wgt id='2646'>0.78815E+02</wgt>
<wgt id='2647'>0.78922E+02</wgt>
<wgt id='2648'>0.78913E+02</wgt>
<wgt id='2649'>0.78911E+02</wgt>
<wgt id='2650'>0.78889E+02</wgt>
<wgt id='2651'>0.77575E+02</wgt>
<wgt id='2652'>0.80152E+02</wgt>
<wgt id='2700'>0.76230E+02</wgt>
<wgt id='2701'>0.77575E+02</wgt>
<wgt id='2702'>0.78248E+02</wgt>
<wgt id='2703'>0.79436E+02</wgt>
<wgt id='2704'>0.80152E+02</wgt>
<wgt id='2705'>0.81306E+02</wgt>
<wgt id='2800'>0.80421E+02</wgt>
<wgt id='4000'>0.81044E+02</wgt>
<wgt id='4001'>0.81438E+02</wgt>
<wgt id='4002'>0.81115E+02</wgt>
<wgt id='4003'>0.80930E+02</wgt>
<wgt id='4004'>0.81282E+02</wgt>
<wgt id='4005'>0.80883E+02</wgt>
<wgt id='4006'>0.81212E+02</wgt>
<wgt id='4007'>0.81723E+02</wgt>
<wgt id='4008'>0.80395E+02</wgt>
<wgt id='4009'>0.81537E+02</wgt>
<wgt id='4010'>0.80521E+02</wgt>
<wgt id='4011'>0.81201E+02</wgt>
<wgt id='4012'>0.80724E+02</wgt>
<wgt id='4013'>0.81782E+02</wgt>
<wgt id='4014'>0.80505E+02</wgt>
<wgt id='4015'>0.80987E+02</wgt>
<wgt id='4016'>0.81598E+02</wgt>
<wgt id='4017'>0.81018E+02</wgt>
<wgt id='4018'>0.81126E+02</wgt>
<wgt id='4019'>0.81457E+02</wgt>
<wgt id='4020'>0.80595E+02</wgt>
<wgt id='4021'>0.81235E+02</wgt>
<wgt id='4022'>0.80701E+02</wgt>
<wgt id='4023'>0.81213E+02</wgt>
<wgt id='4024'>0.81152E+02</wgt>
<wgt id='4025'>0.81209E+02</wgt>
<wgt id='4026'>0.80634E+02</wgt>
<wgt id='4027'>0.81411E+02</wgt>
<wgt id='4028'>0.80888E+02</wgt>
<wgt id='4029'>0.80833E+02</wgt>
<wgt id='4030'>0.81118E+02</wgt>
<wgt id='4031'>0.80836E+02</wgt>
<wgt id='4032'>0.81684E+02</wgt>
<wgt id='4033'>0.81302E+02</wgt>
<wgt id='4034'>0.80813E+02</wgt>
<wgt id='4035'>0.82215E+02</wgt>
<wgt id='4036'>0.80239E+02</wgt>
<wgt id='4037'>0.82549E+02</wgt>
<wgt id='4038'>0.79849E+02</wgt>
<wgt id='4039'>0.82429E+02</wgt>
<wgt id='4040'>0.79720E+02</wgt>
<wgt id='4041'>0.81003E+02</wgt>
<wgt id='4042'>0.81030E+02</wgt>
<wgt id='4043'>0.79984E+02</wgt>
<wgt id='4044'>0.81508E+02</wgt>
<wgt id='4045'>0.82188E+02</wgt>
<wgt id='4046'>0.80606E+02</wgt>
<wgt id='4047'>0.80279E+02</wgt>
<wgt id='4048'>0.81664E+02</wgt>
<wgt id='4049'>0.81000E+02</wgt>
<wgt id='4050'>0.81263E+02</wgt>
<wgt id='4051'>0.81756E+02</wgt>
<wgt id='4052'>0.80457E+02</wgt>
<wgt id='4053'>0.81846E+02</wgt>
<wgt id='4054'>0.79919E+02</wgt>
<wgt id='4055'>0.81579E+02</wgt>
<wgt id='4056'>0.80673E+02</wgt>
<wgt id='4057'>0.80252E+02</wgt>
<wgt id='4058'>0.81539E+02</wgt>
<wgt id='4100'>0.81306E+02</wgt>
<wgt id='4101'>0.81186E+02</wgt>
<wgt id='4102'>0.80880E+02</wgt>
<wgt id='4103'>0.80698E+02</wgt>
<wgt id='4200'>0.77712E+02</wgt>
<wgt id='4201'>0.77923E+02</wgt>
<wgt id='4202'>0.77921E+02</wgt>
<wgt id='4203'>0.77072E+02</wgt>
<wgt id='4204'>0.78080E+02</wgt>
<wgt id='4205'>0.77633E+02</wgt>
<wgt id='4206'>0.78112E+02</wgt>
<wgt id='4207'>0.77814E+02</wgt>
<wgt id='4208'>0.77988E+02</wgt>
<wgt id='4209'>0.77903E+02</wgt>
<wgt id='4210'>0.77726E+02</wgt>
<wgt id='4211'>0.78622E+02</wgt>
<wgt id='4212'>0.77000E+02</wgt>
<wgt id='4213'>0.77873E+02</wgt>
<wgt id='4214'>0.77492E+02</wgt>
<wgt id='4215'>0.77840E+02</wgt>
<wgt id='4216'>0.77321E+02</wgt>
<wgt id='4217'>0.77313E+02</wgt>
<wgt id='4218'>0.77930E+02</wgt>
<wgt id='4219'>0.76951E+02</wgt>
<wgt id='4220'>0.78563E+02</wgt>
<wgt id='4221'>0.77206E+02</wgt>
<wgt id='4222'>0.78301E+02</wgt>
<wgt id='4223'>0.78047E+02</wgt>
<wgt id='4224'>0.76889E+02</wgt>
<wgt id='4225'>0.76561E+02</wgt>
<wgt id='4226'>0.79038E+02</wgt>
<wgt id='4227'>0.78488E+02</wgt>
<wgt id='4228'>0.77102E+02</wgt>
<wgt id='4229'>0.76999E+02</wgt>
<wgt id='4230'>0.78374E+02</wgt>
<wgt id='4231'>0.78072E+02</wgt>
<wgt id='4232'>0.77191E+02</wgt>
<wgt id='4233'>0.78133E+02</wgt>
<wgt id='4234'>0.76930E+02</wgt>
<wgt id='4235'>0.78275E+02</wgt>
<wgt id='4236'>0.77293E+02</wgt>
<wgt id='4237'>0.78049E+02</wgt>
<wgt id='4238'>0.76993E+02</wgt>
<wgt id='4239'>0.78348E+02</wgt>
<wgt id='4240'>0.76754E+02</wgt>
<wgt id='4241'>0.77540E+02</wgt>
<wgt id='4242'>0.77934E+02</wgt>
<wgt id='4243'>0.77719E+02</wgt>
<wgt id='4244'>0.78057E+02</wgt>
<wgt id='4245'>0.77169E+02</wgt>
<wgt id='4246'>0.78090E+02</wgt>
<wgt id='4247'>0.77250E+02</wgt>
<wgt id='4248'>0.77914E+02</wgt>
<wgt id='4249'>0.78872E+02</wgt>
<wgt id='4250'>0.76447E+02</wgt>
<wgt id='4251'>0.77891E+02</wgt>
<wgt id='4252'>0.77562E+02</wgt>
<wgt id='4253'>0.77946E+02</wgt>
<wgt id='4254'>0.77430E+02</wgt>
<wgt id='4255'>0.78273E+02</wgt>
<wgt id='4256'>0.77510E+02</wgt>
<wgt id='4257'>0.76373E+02</wgt>
<wgt id='4258'>0.78090E+02</wgt>
<wgt id='4300'>0.80297E+02</wgt>
<wgt id='4301'>0.79272E+02</wgt>
<wgt id='5000'>0.80041E+02</wgt>
<wgt id='5001'>0.80087E+02</wgt>
<wgt id='5002'>0.79983E+02</wgt>
<wgt id='5003'>0.80060E+02</wgt>
<wgt id='5004'>0.80025E+02</wgt>
<wgt id='5005'>0.80055E+02</wgt>
<wgt id='5006'>0.80018E+02</wgt>
<wgt id='5007'>0.80113E+02</wgt>
<wgt id='5008'>0.79983E+02</wgt>
<wgt id='5009'>0.80161E+02</wgt>
<wgt id='5010'>0.79918E+02</wgt>
<wgt id='5011'>0.80271E+02</wgt>
<wgt id='5012'>0.79820E+02</wgt>
<wgt id='5013'>0.80214E+02</wgt>
<wgt id='5014'>0.79919E+02</wgt>
<wgt id='5015'>0.79667E+02</wgt>
<wgt id='5016'>0.79667E+02</wgt>
<wgt id='5017'>0.80340E+02</wgt>
<wgt id='5018'>0.79840E+02</wgt>
<wgt id='5019'>0.80235E+02</wgt>
<wgt id='5020'>0.79775E+02</wgt>
<wgt id='5021'>0.80121E+02</wgt>
<wgt id='5022'>0.79919E+02</wgt>
<wgt id='5023'>0.80011E+02</wgt>
<wgt id='5024'>0.80114E+02</wgt>
<wgt id='5025'>0.79871E+02</wgt>
<wgt id='5026'>0.80229E+02</wgt>
<wgt id='5027'>0.80087E+02</wgt>
<wgt id='5028'>0.79919E+02</wgt>
<wgt id='5029'>0.80782E+02</wgt>
<wgt id='5030'>0.79625E+02</wgt>
<wgt id='5031'>0.79618E+02</wgt>
<wgt id='5032'>0.81345E+02</wgt>
<wgt id='5033'>0.80006E+02</wgt>
<wgt id='5034'>0.80079E+02</wgt>
<wgt id='5035'>0.80052E+02</wgt>
<wgt id='5036'>0.80028E+02</wgt>
<wgt id='5037'>0.79865E+02</wgt>
<wgt id='5038'>0.80140E+02</wgt>
<wgt id='5039'>0.80202E+02</wgt>
<wgt id='5040'>0.79638E+02</wgt>
<wgt id='5041'>0.80028E+02</wgt>
<wgt id='5042'>0.80069E+02</wgt>
<wgt id='5043'>0.80174E+02</wgt>
<wgt id='5044'>0.79931E+02</wgt>
<wgt id='5045'>0.79982E+02</wgt>
<wgt id='5046'>0.80252E+02</wgt>
<wgt id='5047'>0.80092E+02</wgt>
<wgt id='5048'>0.79818E+02</wgt>
<wgt id='5049'>0.79994E+02</wgt>
<wgt id='5050'>0.80148E+02</wgt>
<wgt id='5051'>0.80156E+02</wgt>
<wgt id='5052'>0.79966E+02</wgt>
<wgt id='5053'>0.80127E+02</wgt>
<wgt id='5054'>0.80158E+02</wgt>
<wgt id='5055'>0.80043E+02</wgt>
<wgt id='5056'>0.80040E+02</wgt>
<wgt id='5057'>0.79789E+02</wgt>
<wgt id='5058'>0.80221E+02</wgt>
<wgt id='5059'>0.79988E+02</wgt>
<wgt id='5060'>0.80071E+02</wgt>
<wgt id='5061'>0.80319E+02</wgt>
<wgt id='5062'>0.80134E+02</wgt>
<wgt id='5063'>0.80365E+02</wgt>
<wgt id='5064'>0.79986E+02</wgt>
<wgt id='5100'>0.80041E+02</wgt>
<wgt id='5101'>0.80038E+02</wgt>
<wgt id='6000'>0.80537E+02</wgt>
<wgt id='6001'>0.80729E+02</wgt>
<wgt id='6002'>0.80431E+02</wgt>
<wgt id='6003'>0.80445E+02</wgt>
<wgt id='6004'>0.80636E+02</wgt>
<wgt id='6005'>0.80323E+02</wgt>
<wgt id='6006'>0.80870E+02</wgt>
<wgt id='6007'>0.80275E+02</wgt>
<wgt id='6008'>0.80381E+02</wgt>
<wgt id='6009'>0.80975E+02</wgt>
<wgt id='6010'>0.79518E+02</wgt>
<wgt id='6011'>0.80519E+02</wgt>
<wgt id='6012'>0.80896E+02</wgt>
<wgt id='6013'>0.80323E+02</wgt>
<wgt id='6014'>0.80447E+02</wgt>
<wgt id='6015'>0.80013E+02</wgt>
<wgt id='6016'>0.80676E+02</wgt>
<wgt id='6017'>0.80580E+02</wgt>
<wgt id='6018'>0.80332E+02</wgt>
<wgt id='6019'>0.80678E+02</wgt>
<wgt id='6020'>0.80729E+02</wgt>
<wgt id='6021'>0.80651E+02</wgt>
<wgt id='6022'>0.80778E+02</wgt>
<wgt id='6023'>0.80593E+02</wgt>
<wgt id='6024'>0.80652E+02</wgt>
<wgt id='6025'>0.80754E+02</wgt>
<wgt id='6026'>0.80613E+02</wgt>
<wgt id='6027'>0.80551E+02</wgt>
<wgt id='6028'>0.80380E+02</wgt>
<wgt id='6029'>0.80385E+02</wgt>
<wgt id='6030'>0.81130E+02</wgt>
<wgt id='6031'>0.80334E+02</wgt>
<wgt id='6032'>0.80634E+02</wgt>
<wgt id='6033'>0.80451E+02</wgt>
<wgt id='6034'>0.80822E+02</wgt>
<wgt id='6035'>0.80580E+02</wgt>
<wgt id='6036'>0.80815E+02</wgt>
<wgt id='6037'>0.80537E+02</wgt>
<wgt id='6038'>0.80552E+02</wgt>
<wgt id='6039'>0.80753E+02</wgt>
<wgt id='6040'>0.80498E+02</wgt>
<wgt id='6041'>0.79488E+02</wgt>
<wgt id='6042'>0.81483E+02</wgt>
<wgt id='7000'>0.79173E+02</wgt>
<wgt id='7001'>0.78790E+02</wgt>
<wgt id='7002'>0.78958E+02</wgt>
<wgt id='7003'>0.78831E+02</wgt>
<wgt id='7004'>0.78918E+02</wgt>
<wgt id='7005'>0.78898E+02</wgt>
<wgt id='7006'>0.78851E+02</wgt>
<wgt id='7007'>0.79318E+02</wgt>
<wgt id='7008'>0.78443E+02</wgt>
<wgt id='7009'>0.78548E+02</wgt>
<wgt id='7010'>0.79212E+02</wgt>
<wgt id='7011'>0.79031E+02</wgt>
<wgt id='7012'>0.78723E+02</wgt>
<wgt id='7013'>0.78842E+02</wgt>
<wgt id='7014'>0.78899E+02</wgt>
<wgt id='7015'>0.78811E+02</wgt>
<wgt id='7016'>0.78718E+02</wgt>
<wgt id='7017'>0.78938E+02</wgt>
<wgt id='7018'>0.78821E+02</wgt>
<wgt id='7019'>0.78844E+02</wgt>
<wgt id='7020'>0.78916E+02</wgt>
<wgt id='7021'>0.79238E+02</wgt>
<wgt id='7022'>0.78558E+02</wgt>
<wgt id='7023'>0.78415E+02</wgt>
<wgt id='7024'>0.79345E+02</wgt>
<wgt id='7025'>0.77903E+02</wgt>
<wgt id='7026'>0.79838E+02</wgt>
<wgt id='7027'>0.78386E+02</wgt>
<wgt id='7028'>0.79392E+02</wgt>
<wgt id='8000'>0.79009E+02</wgt>
<wgt id='8001'>0.79004E+02</wgt>
<wgt id='8002'>0.79031E+02</wgt>
<wgt id='8003'>0.79007E+02</wgt>
<wgt id='8004'>0.79007E+02</wgt>
<wgt id='8005'>0.78882E+02</wgt>
<wgt id='8006'>0.79114E+02</wgt>
<wgt id='8007'>0.79196E+02</wgt>
<wgt id='8008'>0.79145E+02</wgt>
<wgt id='8009'>0.79262E+02</wgt>
<wgt id='8010'>0.78924E+02</wgt>
<wgt id='8011'>0.79037E+02</wgt>
<wgt id='8012'>0.78749E+02</wgt>
<wgt id='8013'>0.78844E+02</wgt>
<wgt id='8014'>0.79209E+02</wgt>
<wgt id='8015'>0.78979E+02</wgt>
<wgt id='8016'>0.79072E+02</wgt>
<wgt id='8017'>0.79059E+02</wgt>
<wgt id='8018'>0.79208E+02</wgt>
<wgt id='8019'>0.79016E+02</wgt>
<wgt id='8020'>0.79062E+02</wgt>
<wgt id='8021'>0.78932E+02</wgt>
<wgt id='8022'>0.79101E+02</wgt>
<wgt id='8023'>0.78869E+02</wgt>
<wgt id='8024'>0.78697E+02</wgt>
<wgt id='8025'>0.78878E+02</wgt>
<wgt id='8026'>0.79066E+02</wgt>
<wgt id='8027'>0.79101E+02</wgt>
<wgt id='8028'>0.79013E+02</wgt>
<wgt id='8029'>0.79311E+02</wgt>
<wgt id='3000'>0.81104E+02</wgt>
<wgt id='3001'>0.82288E+02</wgt>
<wgt id='3002'>0.79592E+02</wgt>
<wgt id='3003'>0.81345E+02</wgt>
<wgt id='3004'>0.81620E+02</wgt>
<wgt id='3005'>0.80021E+02</wgt>
<wgt id='3006'>0.85255E+02</wgt>
<wgt id='3007'>0.81283E+02</wgt>
<wgt id='3008'>0.80403E+02</wgt>
<wgt id='3009'>0.81264E+02</wgt>
<wgt id='3010'>0.82380E+02</wgt>
<wgt id='3011'>0.82822E+02</wgt>
<wgt id='3012'>0.83120E+02</wgt>
<wgt id='3013'>0.81017E+02</wgt>
<wgt id='3014'>0.81101E+02</wgt>
<wgt id='3015'>0.80410E+02</wgt>
<wgt id='3016'>0.81364E+02</wgt>
<wgt id='3017'>0.82513E+02</wgt>
<wgt id='3018'>0.81355E+02</wgt>
<wgt id='3019'>0.78795E+02</wgt>
<wgt id='3020'>0.79785E+02</wgt>
<wgt id='3021'>0.80581E+02</wgt>
<wgt id='3022'>0.78833E+02</wgt>
<wgt id='3023'>0.79338E+02</wgt>
<wgt id='3024'>0.80339E+02</wgt>
<wgt id='3025'>0.79726E+02</wgt>
<wgt id='3026'>0.80485E+02</wgt>
<wgt id='3027'>0.78971E+02</wgt>
<wgt id='3028'>0.82224E+02</wgt>
<wgt id='3029'>0.82142E+02</wgt>
<wgt id='3030'>0.82682E+02</wgt>
<wgt id='3031'>0.80648E+02</wgt>
<wgt id='3032'>0.84327E+02</wgt>
<wgt id='3033'>0.80470E+02</wgt>
<wgt id='3034'>0.81371E+02</wgt>
<wgt id='3035'>0.80982E+02</wgt>
<wgt id='3036'>0.82057E+02</wgt>
<wgt id='3037'>0.81333E+02</wgt>
<wgt id='3038'>0.80628E+02</wgt>
<wgt id='3039'>0.81907E+02</wgt>
<wgt id='3040'>0.80743E+02</wgt>
<wgt id='3041'>0.80588E+02</wgt>
<wgt id='3042'>0.81194E+02</wgt>
<wgt id='3043'>0.80905E+02</wgt>
<wgt id='3044'>0.80858E+02</wgt>
<wgt id='3045'>0.80382E+02</wgt>
<wgt id='3046'>0.81820E+02</wgt>
<wgt id='3047'>0.81342E+02</wgt>
<wgt id='3048'>0.80035E+02</wgt>
<wgt id='3049'>0.81858E+02</wgt>
<wgt id='3050'>0.82631E+02</wgt>
<wgt id='3051'>0.82436E+02</wgt>
<wgt id='3052'>0.80646E+02</wgt>
<wgt id='3053'>0.79949E+02</wgt>
<wgt id='3054'>0.82095E+02</wgt>
<wgt id='3055'>0.79585E+02</wgt>
<wgt id='3056'>0.80777E+02</wgt>
<wgt id='3057'>0.81200E+02</wgt>
<wgt id='3058'>0.79785E+02</wgt>
<wgt id='3059'>0.80988E+02</wgt>
<wgt id='3060'>0.82368E+02</wgt>
<wgt id='3061'>0.81590E+02</wgt>
<wgt id='3062'>0.80475E+02</wgt>
<wgt id='3063'>0.79362E+02</wgt>
<wgt id='3064'>0.80435E+02</wgt>
<wgt id='3065'>0.80973E+02</wgt>
<wgt id='3066'>0.80132E+02</wgt>
<wgt id='3067'>0.79212E+02</wgt>
<wgt id='3068'>0.81407E+02</wgt>
<wgt id='3069'>0.81288E+02</wgt>
<wgt id='3070'>0.80688E+02</wgt>
<wgt id='3071'>0.81665E+02</wgt>
<wgt id='3072'>0.79474E+02</wgt>
<wgt id='3073'>0.81338E+02</wgt>
<wgt id='3074'>0.80919E+02</wgt>
<wgt id='3075'>0.82094E+02</wgt>
<wgt id='3076'>0.81400E+02</wgt>
<wgt id='3077'>0.80045E+02</wgt>
<wgt id='3078'>0.82023E+02</wgt>
<wgt id='3079'>0.80856E+02</wgt>
<wgt id='3080'>0.81896E+02</wgt>
<wgt id='3081'>0.79844E+02</wgt>
<wgt id='3082'>0.81364E+02</wgt>
<wgt id='3083'>0.81462E+02</wgt>
<wgt id='3084'>0.80631E+02</wgt>
<wgt id='3085'>0.82430E+02</wgt>
<wgt id='3086'>0.80976E+02</wgt>
<wgt id='3087'>0.81622E+02</wgt>
<wgt id='3088'>0.83052E+02</wgt>
<wgt id='3089'>0.81713E+02</wgt>
<wgt id='3090'>0.81865E+02</wgt>
<wgt id='3091'>0.79752E+02</wgt>
<wgt id='3092'>0.82444E+02</wgt>
<wgt id='3093'>0.80989E+02</wgt>
<wgt id='3094'>0.81161E+02</wgt>
<wgt id='3095'>0.83046E+02</wgt>
<wgt id='3096'>0.79879E+02</wgt>
<wgt id='3097'>0.80886E+02</wgt>
<wgt id='3098'>0.81707E+02</wgt>
<wgt id='3099'>0.79674E+02</wgt>
<wgt id='3100'>0.79993E+02</wgt>
<wgt id='3200'>0.78951E+02</wgt>
<wgt id='3201'>0.79775E+02</wgt>
<wgt id='3202'>0.78523E+02</wgt>
<wgt id='3203'>0.79466E+02</wgt>
<wgt id='3204'>0.78556E+02</wgt>
<wgt id='3205'>0.79691E+02</wgt>
<wgt id='3206'>0.79069E+02</wgt>
<wgt id='3207'>0.79434E+02</wgt>
<wgt id='3208'>0.79489E+02</wgt>
<wgt id='3209'>0.78741E+02</wgt>
<wgt id='3210'>0.78568E+02</wgt>
<wgt id='3211'>0.78678E+02</wgt>
<wgt id='3212'>0.77828E+02</wgt>
<wgt id='3213'>0.78795E+02</wgt>
<wgt id='3214'>0.78890E+02</wgt>
<wgt id='3215'>0.78773E+02</wgt>
<wgt id='3216'>0.80271E+02</wgt>
<wgt id='3217'>0.78965E+02</wgt>
<wgt id='3218'>0.78744E+02</wgt>
<wgt id='3219'>0.78331E+02</wgt>
<wgt id='3220'>0.79177E+02</wgt>
<wgt id='3221'>0.79738E+02</wgt>
<wgt id='3222'>0.80359E+02</wgt>
<wgt id='3223'>0.78034E+02</wgt>
<wgt id='3224'>0.78963E+02</wgt>
<wgt id='3225'>0.79474E+02</wgt>
<wgt id='3226'>0.79715E+02</wgt>
<wgt id='3227'>0.78978E+02</wgt>
<wgt id='3228'>0.78665E+02</wgt>
<wgt id='3229'>0.79287E+02</wgt>
<wgt id='3230'>0.79601E+02</wgt>
<wgt id='3231'>0.78980E+02</wgt>
<wgt id='3232'>0.79329E+02</wgt>
<wgt id='3233'>0.79721E+02</wgt>
<wgt id='3234'>0.78637E+02</wgt>
<wgt id='3235'>0.78263E+02</wgt>
<wgt id='3236'>0.77995E+02</wgt>
<wgt id='3237'>0.78650E+02</wgt>
<wgt id='3238'>0.79441E+02</wgt>
<wgt id='3239'>0.78517E+02</wgt>
<wgt id='3240'>0.78289E+02</wgt>
<wgt id='3241'>0.79408E+02</wgt>
<wgt id='3242'>0.78589E+02</wgt>
<wgt id='3243'>0.78268E+02</wgt>
<wgt id='3244'>0.78765E+02</wgt>
<wgt id='3245'>0.79234E+02</wgt>
<wgt id='3246'>0.78458E+02</wgt>
<wgt id='3247'>0.79213E+02</wgt>
<wgt id='3248'>0.78790E+02</wgt>
<wgt id='3249'>0.78732E+02</wgt>
<wgt id='3250'>0.78986E+02</wgt>
<wgt id='3251'>0.78696E+02</wgt>
<wgt id='3252'>0.79378E+02</wgt>
<wgt id='3253'>0.79162E+02</wgt>
<wgt id='3254'>0.78570E+02</wgt>
<wgt id='3255'>0.78834E+02</wgt>
<wgt id='3256'>0.78376E+02</wgt>
<wgt id='3257'>0.78463E+02</wgt>
<wgt id='3258'>0.79193E+02</wgt>
<wgt id='3259'>0.79410E+02</wgt>
<wgt id='3260'>0.79718E+02</wgt>
<wgt id='3261'>0.79997E+02</wgt>
<wgt id='3262'>0.78689E+02</wgt>
<wgt id='3263'>0.79941E+02</wgt>
<wgt id='3264'>0.79314E+02</wgt>
<wgt id='3265'>0.78523E+02</wgt>
<wgt id='3266'>0.78650E+02</wgt>
<wgt id='3267'>0.78488E+02</wgt>
<wgt id='3268'>0.79060E+02</wgt>
<wgt id='3269'>0.78882E+02</wgt>
<wgt id='3270'>0.78553E+02</wgt>
<wgt id='3271'>0.78812E+02</wgt>
<wgt id='3272'>0.79239E+02</wgt>
<wgt id='3273'>0.78649E+02</wgt>
<wgt id='3274'>0.79469E+02</wgt>
<wgt id='3275'>0.79274E+02</wgt>
<wgt id='3276'>0.78003E+02</wgt>
<wgt id='3277'>0.78316E+02</wgt>
<wgt id='3278'>0.78647E+02</wgt>
<wgt id='3279'>0.79985E+02</wgt>
<wgt id='3280'>0.78632E+02</wgt>
<wgt id='3281'>0.79112E+02</wgt>
<wgt id='3282'>0.78950E+02</wgt>
<wgt id='3283'>0.79561E+02</wgt>
<wgt id='3284'>0.79067E+02</wgt>
<wgt id='3285'>0.78267E+02</wgt>
<wgt id='3286'>0.78608E+02</wgt>
<wgt id='3287'>0.78556E+02</wgt>
<wgt id='3288'>0.78994E+02</wgt>
<wgt id='3289'>0.79399E+02</wgt>
<wgt id='3290'>0.80207E+02</wgt>
<wgt id='3291'>0.77759E+02</wgt>
<wgt id='3292'>0.78350E+02</wgt>
<wgt id='3293'>0.79070E+02</wgt>
<wgt id='3294'>0.77476E+02</wgt>
<wgt id='3295'>0.78612E+02</wgt>
<wgt id='3296'>0.80234E+02</wgt>
<wgt id='3297'>0.78555E+02</wgt>
<wgt id='3298'>0.78665E+02</wgt>
<wgt id='3299'>0.78646E+02</wgt>
<wgt id='3300'>0.79310E+02</wgt>
<wgt id='3301'>0.77575E+02</wgt>
<wgt id='3302'>0.80152E+02</wgt>
<wgt id='3400'>0.79480E+02</wgt>
<wgt id='3401'>0.79886E+02</wgt>
<wgt id='3402'>0.78767E+02</wgt>
<wgt id='3403'>0.80106E+02</wgt>
<wgt id='3404'>0.80293E+02</wgt>
<wgt id='3405'>0.80753E+02</wgt>
<wgt id='3406'>0.78767E+02</wgt>
<wgt id='3407'>0.78267E+02</wgt>
<wgt id='3408'>0.80530E+02</wgt>
<wgt id='3409'>0.80082E+02</wgt>
<wgt id='3410'>0.80101E+02</wgt>
<wgt id='3411'>0.79244E+02</wgt>
<wgt id='3412'>0.79657E+02</wgt>
<wgt id='3413'>0.79272E+02</wgt>
<wgt id='3414'>0.79929E+02</wgt>
<wgt id='3415'>0.79702E+02</wgt>
<wgt id='3416'>0.79409E+02</wgt>
<wgt id='3417'>0.78853E+02</wgt>
<wgt id='3418'>0.79103E+02</wgt>
<wgt id='3419'>0.79010E+02</wgt>
<wgt id='3420'>0.79711E+02</wgt>
<wgt id='3421'>0.80251E+02</wgt>
<wgt id='3422'>0.79448E+02</wgt>
<wgt id='3423'>0.80752E+02</wgt>
<wgt id='3424'>0.79865E+02</wgt>
<wgt id='3425'>0.79849E+02</wgt>
<wgt id='3426'>0.79240E+02</wgt>
<wgt id='3427'>0.80131E+02</wgt>
<wgt id='3428'>0.79716E+02</wgt>
<wgt id='3429'>0.78854E+02</wgt>
<wgt id='3430'>0.79807E+02</wgt>
<wgt id='3431'>0.79185E+02</wgt>
<wgt id='3432'>0.78363E+02</wgt>
<wgt id='3433'>0.78712E+02</wgt>
<wgt id='3434'>0.79869E+02</wgt>
<wgt id='3435'>0.80027E+02</wgt>
<wgt id='3436'>0.79462E+02</wgt>
<wgt id='3437'>0.78957E+02</wgt>
<wgt id='3438'>0.78719E+02</wgt>
<wgt id='3439'>0.80361E+02</wgt>
<wgt id='3440'>0.79514E+02</wgt>
<wgt id='3441'>0.79720E+02</wgt>
<wgt id='3442'>0.79008E+02</wgt>
<wgt id='3443'>0.79613E+02</wgt>
<wgt id='3444'>0.80164E+02</wgt>
<wgt id='3445'>0.79276E+02</wgt>
<wgt id='3446'>0.80478E+02</wgt>
<wgt id='3447'>0.80167E+02</wgt>
<wgt id='3448'>0.79551E+02</wgt>
<wgt id='3449'>0.80405E+02</wgt>
<wgt id='3450'>0.79684E+02</wgt>
<wgt id='3451'>0.79665E+02</wgt>
<wgt id='3452'>0.78779E+02</wgt>
<wgt id='3453'>0.78653E+02</wgt>
<wgt id='3454'>0.78758E+02</wgt>
<wgt id='3455'>0.80050E+02</wgt>
<wgt id='3456'>0.79661E+02</wgt>
<wgt id='3457'>0.80690E+02</wgt>
<wgt id='3458'>0.79631E+02</wgt>
<wgt id='3459'>0.79816E+02</wgt>
<wgt id='3460'>0.79517E+02</wgt>
<wgt id='3461'>0.79418E+02</wgt>
<wgt id='3462'>0.78984E+02</wgt>
<wgt id='3463'>0.79213E+02</wgt>
<wgt id='3464'>0.79689E+02</wgt>
<wgt id='3465'>0.78785E+02</wgt>
<wgt id='3466'>0.80071E+02</wgt>
<wgt id='3467'>0.79106E+02</wgt>
<wgt id='3468'>0.79531E+02</wgt>
<wgt id='3469'>0.79556E+02</wgt>
<wgt id='3470'>0.79536E+02</wgt>
<wgt id='3471'>0.79072E+02</wgt>
<wgt id='3472'>0.79094E+02</wgt>
<wgt id='3473'>0.79580E+02</wgt>
<wgt id='3474'>0.79940E+02</wgt>
<wgt id='3475'>0.79170E+02</wgt>
<wgt id='3476'>0.79355E+02</wgt>
<wgt id='3477'>0.79432E+02</wgt>
<wgt id='3478'>0.79882E+02</wgt>
<wgt id='3479'>0.79511E+02</wgt>
<wgt id='3480'>0.78538E+02</wgt>
<wgt id='3481'>0.79117E+02</wgt>
<wgt id='3482'>0.79710E+02</wgt>
<wgt id='3483'>0.78483E+02</wgt>
<wgt id='3484'>0.79913E+02</wgt>
<wgt id='3485'>0.79018E+02</wgt>
<wgt id='3486'>0.79042E+02</wgt>
<wgt id='3487'>0.80154E+02</wgt>
<wgt id='3488'>0.79754E+02</wgt>
<wgt id='3489'>0.79060E+02</wgt>
<wgt id='3490'>0.80520E+02</wgt>
<wgt id='3491'>0.78769E+02</wgt>
<wgt id='3492'>0.79799E+02</wgt>
<wgt id='3493'>0.78460E+02</wgt>
<wgt id='3494'>0.77626E+02</wgt>
<wgt id='3495'>0.79701E+02</wgt>
<wgt id='3496'>0.78472E+02</wgt>
<wgt id='3497'>0.79079E+02</wgt>
<wgt id='3498'>0.78723E+02</wgt>
<wgt id='3499'>0.80045E+02</wgt>
<wgt id='3500'>0.79364E+02</wgt>
</rwgt>
</event>
<event>
     13 322200  8.11039E+01  3.84860E+00 -1.00000E+00  2.59800E-01
      21    -1     0     0   503   504  0.000000000E+00  0.000000000E+00  1.531636224E+02  1.531636224E+02  0.000000000E+00  0.00000E+00  9.000E+00
      21    -1     0     0   502   503  0.000000000E+00  0.000000000E+00 -3.219989947E+02  3.219989947E+02  0.000000000E+00  0.00000E+00  9.000E+00
       6     2     1     2   502     0 -4.897977352E+01 -1.456876411E+01 -1.648423914E+02  2.438857975E+02  1.723252771E+02  0.00000E+00  9.000E+00
      -6     2     1     2     0   505  4.627442984E+01  1.730607140E+01 -4.666298590E+01  1.884336047E+02  1.757525709E+02  0.00000E+00  9.000E+00
      21     1     1     2   505   504  2.705343685E+00 -2.737307297E+00  4.267000502E+01  4.284321491E+01  4.768371582E-07  0.00000E+00  9.000E+00
      24     2     3     3     0     0  2.620365055E+01  3.087799060E+01 -6.634734436E+01  1.118069095E+02  8.036624476E+01  0.00000E+00  9.000E+00
       5     1     3     3   502     0 -7.518342407E+01 -4.544675471E+01 -9.849504703E+01  1.320788880E+02  5.060000000E+00  0.00000E+00 -1.000E+00
     -24     2     4     4     0     0 -1.915594785E+01  5.009131597E+01 -5.725085318E+01  1.143140181E+02  8.315013096E+01  0.00000E+00  9.000E+00
      -5     1     4     4     0   505  6.543037769E+01 -3.278524457E+01  1.058786728E+01  7.411958661E+01  5.060000000E+00  0.00000E+00  1.000E+00
     -13     1     6     6     0     0 -1.920663965E+01 -9.390082811E+00  6.721122915E-01  2.138998759E+01  1.057000000E-01  0.00000E+00  1.000E+00
      14     1     6     6     0     0  4.541029020E+01  4.026807341E+01 -6.701945665E+01  9.041692188E+01  0.000000000E+00  0.00000E+00 -1.000E+00
      15     1     8     8     0     0  5.655018460E+00  6.509702889E+00  2.020552730E+01  2.204033865E+01  1.777000000E+00  0.00000E+00 -1.000E+00
     -16     1     8     8     0     0 -2.481096631E+01  4.358161308E+01 -7.745638048E+01  9.227367948E+01  0.000000000E+00  0.00000E+00  1.000E+00
#rwgt            2           1   8.1755503886100911               10       10260           0
<rwgt>
<wgt id='1001'>0.81104E+02</wgt>
<wgt id='1002'>0.77111E+02</wgt>
<wgt id='1003'>0.84982E+02</wgt>
<wgt id='1004'>0.62081E+02</wgt>
<wgt id='1005'>0.59025E+02</wgt>
<wgt id='1006'>0.65050E+02</wgt>
<wgt id='1007'>0.10892E+03</wgt>
<wgt id='1008'>0.10355E+03</wgt>
<wgt id='1009'>0.11412E+03</wgt>
<wgt id='2000'>0.81104E+02</wgt>
<wgt id='2001'>0.81219E+02</wgt>
<wgt id='2002'>0.80888E+02</wgt>
<wgt id='2003'>0.81015E+02</wgt>
<wgt id='2004'>0.81279E+02</wgt>
<wgt id='2005'>0.81211E+02</wgt>
<wgt id='2006'>0.81299E+02</wgt>
<wgt id='2007'>0.81312E+02</wgt>
<wgt id='2008'>0.81537E+02</wgt>
<wgt id='2009'>0.80984E+02</wgt>
<wgt id='2010'>0.81072E+02</wgt>
<wgt id='2011'>0.80718E+02</wgt>
<wgt id='2012'>0.81297E+02</wgt>
<wgt id='2013'>0.81233E+02</wgt>
<wgt id='2014'>0.81371E+02</wgt>
<wgt id='2015'>0.81283E+02</wgt>
<wgt id='2016'>0.81119E+02</wgt>
<wgt id='2017'>0.81082E+02</wgt>
<wgt id='2018'>0.81028E+02</wgt>
<wgt id='2019'>0.81460E+02</wgt>
<wgt id='2020'>0.80878E+02</wgt>
<wgt id='2021'>0.81067E+02</wgt>
<wgt id='2022'>0.80958E+02</wgt>
<wgt id='2023'>0.81096E+02</wgt>
<wgt id='2024'>0.81077E+02</wgt>
<wgt id='2025'>0.81056E+02</wgt>
<wgt id='2026'>0.81026E+02</wgt>
<wgt id='2027'>0.80833E+02</wgt>
<wgt id='2028'>0.81225E+02</wgt>
<wgt id='2029'>0.80807E+02</wgt>
<wgt id='2030'>0.81070E+02</wgt>
<wgt id='2031'>0.80843E+02</wgt>
<wgt id='2032'>0.81144E+02</wgt>
<wgt id='2033'>0.81011E+02</wgt>
<wgt id='2034'>0.80987E+02</wgt>
<wgt id='2035'>0.81106E+02</wgt>
<wgt id='2036'>0.81267E+02</wgt>
<wgt id='2037'>0.81096E+02</wgt>
<wgt id='2038'>0.81067E+02</wgt>
<wgt id='2039'>0.81125E+02</wgt>
<wgt id='2040'>0.81045E+02</wgt>
<wgt id='2041'>0.81111E+02</wgt>
<wgt id='2042'>0.81127E+02</wgt>
<wgt id='2043'>0.81060E+02</wgt>
<wgt id='2044'>0.81162E+02</wgt>
<wgt id='2045'>0.81128E+02</wgt>
<wgt id='2046'>0.81115E+02</wgt>
<wgt id='2047'>0.81084E+02</wgt>
<wgt id='2048'>0.81065E+02</wgt>
<wgt id='2049'>0.81044E+02</wgt>
<wgt id='2050'>0.81069E+02</wgt>
<wgt id='2051'>0.81096E+02</wgt>
<wgt id='2052'>0.81174E+02</wgt>
<wgt id='2053'>0.81089E+02</wgt>
<wgt id='2054'>0.81100E+02</wgt>
<wgt id='2055'>0.81118E+02</wgt>
<wgt id='2056'>0.81075E+02</wgt>
<wgt id='2057'>0.81132E+02</wgt>
<wgt id='2058'>0.81117E+02</wgt>
<wgt id='2059'>0.81119E+02</wgt>
<wgt id='2060'>0.81107E+02</wgt>
<wgt id='2061'>0.81094E+02</wgt>
<wgt id='2062'>0.81169E+02</wgt>
<wgt id='2063'>0.81123E+02</wgt>
<wgt id='2064'>0.81123E+02</wgt>
<wgt id='2065'>0.81170E+02</wgt>
<wgt id='2066'>0.81105E+02</wgt>
<wgt id='2067'>0.81126E+02</wgt>
<wgt id='2068'>0.81115E+02</wgt>
<wgt id='2069'>0.81114E+02</wgt>
<wgt id='2070'>0.81112E+02</wgt>
<wgt id='2071'>0.81106E+02</wgt>
<wgt id='2072'>0.81106E+02</wgt>
<wgt id='2073'>0.81121E+02</wgt>
<wgt id='2074'>0.81089E+02</wgt>
<wgt id='2075'>0.81089E+02</wgt>
<wgt id='2076'>0.81098E+02</wgt>
<wgt id='2077'>0.81146E+02</wgt>
<wgt id='2078'>0.81114E+02</wgt>
<wgt id='2079'>0.81085E+02</wgt>
<wgt id='2080'>0.81107E+02</wgt>
<wgt id='2081'>0.81093E+02</wgt>
<wgt id='2082'>0.81115E+02</wgt>
<wgt id='2083'>0.81131E+02</wgt>
<wgt id='2084'>0.81114E+02</wgt>
<wgt id='2085'>0.81103E+02</wgt>
<wgt id='2086'>0.81092E+02</wgt>
<wgt id='2087'>0.81115E+02</wgt>
<wgt id='2088'>0.81100E+02</wgt>
<wgt id='2089'>0.81096E+02</wgt>
<wgt id='2090'>0.81118E+02</wgt>
<wgt id='2091'>0.81104E+02</wgt>
<wgt id='2092'>0.81118E+02</wgt>
<wgt id='2093'>0.81091E+02</wgt>
<wgt id='2094'>0.81106E+02</wgt>
<wgt id='2095'>0.81114E+02</wgt>
<wgt id='2096'>0.81095E+02</wgt>
<wgt id='2097'>0.81113E+02</wgt>
<wgt id='2098'>0.81103E+02</wgt>
<wgt id='2099'>0.81115E+02</wgt>
<wgt id='2100'>0.81104E+02</wgt>
<wgt id='2101'>0.78192E+02</wgt>
<wgt id='2102'>0.83985E+02</wgt>
<wgt id='2200'>0.81167E+02</wgt>
<wgt id='2201'>0.67906E+02</wgt>
<wgt id='2202'>0.70368E+02</wgt>
<wgt id='2203'>0.73233E+02</wgt>
<wgt id='2204'>0.75939E+02</wgt>
<wgt id='2205'>0.79908E+02</wgt>
<wgt id='2206'>0.82712E+02</wgt>
<wgt id='2207'>0.86428E+02</wgt>
<wgt id='2208'>0.89257E+02</wgt>
<wgt id='2300'>0.85072E+02</wgt>
<wgt id='2301'>0.85182E+02</wgt>
<wgt id='2302'>0.85011E+02</wgt>
<wgt id='2303'>0.85172E+02</wgt>
<wgt id='2304'>0.85255E+02</wgt>
<wgt id='2305'>0.85306E+02</wgt>
<wgt id='2306'>0.85059E+02</wgt>
<wgt id='2307'>0.85330E+02</wgt>
<wgt id='2308'>0.84989E+02</wgt>
<wgt id='2309'>0.85322E+02</wgt>
<wgt id='2310'>0.84904E+02</wgt>
<wgt id='2311'>0.84952E+02</wgt>
<wgt id='2312'>0.85286E+02</wgt>
<wgt id='2313'>0.85015E+02</wgt>
<wgt id='2314'>0.85268E+02</wgt>
<wgt id='2315'>0.84975E+02</wgt>
<wgt id='2316'>0.85126E+02</wgt>
<wgt id='2317'>0.85260E+02</wgt>
<wgt id='2318'>0.85302E+02</wgt>
<wgt id='2319'>0.84811E+02</wgt>
<wgt id='2320'>0.84821E+02</wgt>
<wgt id='2321'>0.84749E+02</wgt>
<wgt id='2322'>0.85052E+02</wgt>
<wgt id='2323'>0.84872E+02</wgt>
<wgt id='2324'>0.84787E+02</wgt>
<wgt id='2325'>0.85099E+02</wgt>
<wgt id='2326'>0.85248E+02</wgt>
<wgt id='2327'>0.85097E+02</wgt>
<wgt id='2328'>0.84738E+02</wgt>
<wgt id='2329'>0.84923E+02</wgt>
<wgt id='2330'>0.85307E+02</wgt>
<wgt id='2331'>0.85184E+02</wgt>
<wgt id='2332'>0.85179E+02</wgt>
<wgt id='2333'>0.85227E+02</wgt>
<wgt id='2334'>0.85129E+02</wgt>
<wgt id='2335'>0.85247E+02</wgt>
<wgt id='2336'>0.85120E+02</wgt>
<wgt id='2337'>0.85064E+02</wgt>
<wgt id='2338'>0.85078E+02</wgt>
<wgt id='2339'>0.85048E+02</wgt>
<wgt id='2340'>0.85059E+02</wgt>
<wgt id='2341'>0.85113E+02</wgt>
<wgt id='2342'>0.84977E+02</wgt>
<wgt id='2343'>0.84976E+02</wgt>
<wgt id='2344'>0.85098E+02</wgt>
<wgt id='2345'>0.85139E+02</wgt>
<wgt id='2346'>0.85134E+02</wgt>
<wgt id='2347'>0.85062E+02</wgt>
<wgt id='2348'>0.85114E+02</wgt>
<wgt id='2349'>0.85053E+02</wgt>
<wgt id='2350'>0.85051E+02</wgt>
<wgt id='2351'>0.85169E+02</wgt>
<wgt id='2352'>0.85036E+02</wgt>
<wgt id='2353'>0.85045E+02</wgt>
<wgt id='2354'>0.85063E+02</wgt>
<wgt id='2355'>0.85023E+02</wgt>
<wgt id='2356'>0.85088E+02</wgt>
<wgt id='2357'>0.85044E+02</wgt>
<wgt id='2358'>0.85029E+02</wgt>
<wgt id='2359'>0.85073E+02</wgt>
<wgt id='2360'>0.85091E+02</wgt>
<wgt id='2361'>0.85088E+02</wgt>
<wgt id='2362'>0.85087E+02</wgt>
<wgt id='2363'>0.85103E+02</wgt>
<wgt id='2364'>0.85053E+02</wgt>
<wgt id='2365'>0.85071E+02</wgt>
<wgt id='2366'>0.85087E+02</wgt>
<wgt id='2367'>0.85036E+02</wgt>
<wgt id='2368'>0.85081E+02</wgt>
<wgt id='2369'>0.85051E+02</wgt>
<wgt id='2370'>0.85073E+02</wgt>
<wgt id='2371'>0.85065E+02</wgt>
<wgt id='2372'>0.85078E+02</wgt>
<wgt id='2373'>0.85046E+02</wgt>
<wgt id='2374'>0.85107E+02</wgt>
<wgt id='2375'>0.85071E+02</wgt>
<wgt id='2376'>0.85074E+02</wgt>
<wgt id='2377'>0.85082E+02</wgt>
<wgt id='2378'>0.85088E+02</wgt>
<wgt id='2379'>0.85064E+02</wgt>
<wgt id='2380'>0.85060E+02</wgt>
<wgt id='2381'>0.85068E+02</wgt>
<wgt id='2382'>0.85056E+02</wgt>
<wgt id='2383'>0.85078E+02</wgt>
<wgt id='2384'>0.85065E+02</wgt>
<wgt id='2385'>0.85078E+02</wgt>
<wgt id='2386'>0.85063E+02</wgt>
<wgt id='2387'>0.85064E+02</wgt>
<wgt id='2388'>0.85068E+02</wgt>
<wgt id='2389'>0.85073E+02</wgt>
<wgt id='2390'>0.85078E+02</wgt>
<wgt id='2391'>0.85073E+02</wgt>
<wgt id='2392'>0.85074E+02</wgt>
<wgt id='2393'>0.85072E+02</wgt>
<wgt id='2394'>0.85087E+02</wgt>
<wgt id='2395'>0.85074E+02</wgt>
<wgt id='2396'>0.85063E+02</wgt>
<wgt id='2397'>0.85057E+02</wgt>
<wgt id='2398'>0.85067E+02</wgt>
<wgt id='2399'>0.85081E+02</wgt>
<wgt id='2400'>0.85077E+02</wgt>
<wgt id='2401'>0.82098E+02</wgt>
<wgt id='2402'>0.88116E+02</wgt>
<wgt id='2500'>0.80956E+02</wgt>
<wgt id='2501'>0.85997E+02</wgt>
<wgt id='2600'>0.78560E+02</wgt>
<wgt id='2601'>0.78558E+02</wgt>
<wgt id='2602'>0.78502E+02</wgt>
<wgt id='2603'>0.78519E+02</wgt>
<wgt id='2604'>0.78645E+02</wgt>
<wgt id='2605'>0.78438E+02</wgt>
<wgt id='2606'>0.78341E+02</wgt>
<wgt id='2607'>0.78718E+02</wgt>
<wgt id='2608'>0.78453E+02</wgt>
<wgt id='2609'>0.78500E+02</wgt>
<wgt id='2610'>0.78516E+02</wgt>
<wgt id='2611'>0.78485E+02</wgt>
<wgt id='2612'>0.78905E+02</wgt>
<wgt id='2613'>0.78526E+02</wgt>
<wgt id='2614'>0.78551E+02</wgt>
<wgt id='2615'>0.78443E+02</wgt>
<wgt id='2616'>0.78530E+02</wgt>
<wgt id='2617'>0.78446E+02</wgt>
<wgt id='2618'>0.78372E+02</wgt>
<wgt id='2619'>0.78600E+02</wgt>
<wgt id='2620'>0.78595E+02</wgt>
<wgt id='2621'>0.78529E+02</wgt>
<wgt id='2622'>0.78602E+02</wgt>
<wgt id='2623'>0.78557E+02</wgt>
<wgt id='2624'>0.78571E+02</wgt>
<wgt id='2625'>0.78508E+02</wgt>
<wgt id='2626'>0.78550E+02</wgt>
<wgt id='2627'>0.78525E+02</wgt>
<wgt id='2628'>0.78575E+02</wgt>
<wgt id='2629'>0.78557E+02</wgt>
<wgt id='2630'>0.78543E+02</wgt>
<wgt id='2631'>0.78565E+02</wgt>
<wgt id='2632'>0.78560E+02</wgt>
<wgt id='2633'>0.78562E+02</wgt>
<wgt id='2634'>0.78572E+02</wgt>
<wgt id='2635'>0.78551E+02</wgt>
<wgt id='2636'>0.78554E+02</wgt>
<wgt id='2637'>0.78556E+02</wgt>
<wgt id='2638'>0.78558E+02</wgt>
<wgt id='2639'>0.78560E+02</wgt>
<wgt id='2640'>0.78562E+02</wgt>
<wgt id='2641'>0.78557E+02</wgt>
<wgt id='2642'>0.78559E+02</wgt>
<wgt id='2643'>0.78564E+02</wgt>
<wgt id='2644'>0.78560E+02</wgt>
<wgt id='2645'>0.78557E+02</wgt>
<wgt id='2646'>0.78549E+02</wgt>
<wgt id='2647'>0.78563E+02</wgt>
<wgt id='2648'>0.78561E+02</wgt>
<wgt id='2649'>0.78563E+02</wgt>
<wgt id='2650'>0.78561E+02</wgt>
<wgt id='2651'>0.76858E+02</wgt>
<wgt id='2652'>0.80189E+02</wgt>
<wgt id='2700'>0.75191E+02</wgt>
<wgt id='2701'>0.76858E+02</wgt>
<wgt id='2702'>0.77754E+02</wgt>
<wgt id='2703'>0.79288E+02</wgt>
<wgt id='2704'>0.80189E+02</wgt>
<wgt id='2705'>0.81748E+02</wgt>
<wgt id='2800'>0.80258E+02</wgt>
<wgt id='4000'>0.79421E+02</wgt>
<wgt id='4001'>0.79772E+02</wgt>
<wgt id='4002'>0.79270E+02</wgt>
<wgt id='4003'>0.80052E+02</wgt>
<wgt id='4004'>0.78651E+02</wgt>
<wgt id='4005'>0.78970E+02</wgt>
<wgt id='4006'>0.79785E+02</wgt>
<wgt id='4007'>0.80440E+02</wgt>
<wgt id='4008'>0.78401E+02</wgt>
<wgt id='4009'>0.79995E+02</wgt>
<wgt id='4010'>0.78978E+02</wgt>
<wgt id='4011'>0.79672E+02</wgt>
<wgt id='4012'>0.79179E+02</wgt>
<wgt id='4013'>0.79993E+02</wgt>
<wgt id='4014'>0.78887E+02</wgt>
<wgt id='4015'>0.79107E+02</wgt>
<wgt id='4016'>0.79447E+02</wgt>
<wgt id='4017'>0.79313E+02</wgt>
<wgt id='4018'>0.79569E+02</wgt>
<wgt id='4019'>0.80012E+02</wgt>
<wgt id='4020'>0.78478E+02</wgt>
<wgt id='4021'>0.79452E+02</wgt>
<wgt id='4022'>0.79335E+02</wgt>
<wgt id='4023'>0.79042E+02</wgt>
<wgt id='4024'>0.79719E+02</wgt>
<wgt id='4025'>0.79690E+02</wgt>
<wgt id='4026'>0.78726E+02</wgt>
<wgt id='4027'>0.79186E+02</wgt>
<wgt id='4028'>0.79625E+02</wgt>
<wgt id='4029'>0.78386E+02</wgt>
<wgt id='4030'>0.79723E+02</wgt>
<wgt id='4031'>0.79360E+02</wgt>
<wgt id='4032'>0.78939E+02</wgt>
<wgt id='4033'>0.79190E+02</wgt>
<wgt id='4034'>0.79431E+02</wgt>
<wgt id='4035'>0.80369E+02</wgt>
<wgt id='4036'>0.78648E+02</wgt>
<wgt id='4037'>0.80419E+02</wgt>
<wgt id='4038'>0.78546E+02</wgt>
<wgt id='4039'>0.80573E+02</wgt>
<wgt id='4040'>0.78178E+02</wgt>
<wgt id='4041'>0.79226E+02</wgt>
<wgt id='4042'>0.79510E+02</wgt>
<wgt id='4043'>0.78324E+02</wgt>
<wgt id='4044'>0.79898E+02</wgt>
<wgt id='4045'>0.81276E+02</wgt>
<wgt id='4046'>0.78535E+02</wgt>
<wgt id='4047'>0.78240E+02</wgt>
<wgt id='4048'>0.79846E+02</wgt>
<wgt id='4049'>0.79215E+02</wgt>
<wgt id='4050'>0.79529E+02</wgt>
<wgt id='4051'>0.80602E+02</wgt>
<wgt id='4052'>0.78272E+02</wgt>
<wgt id='4053'>0.80323E+02</wgt>
<wgt id='4054'>0.78245E+02</wgt>
<wgt id='4055'>0.79781E+02</wgt>
<wgt id='4056'>0.78943E+02</wgt>
<wgt id='4057'>0.78635E+02</wgt>
<wgt id='4058'>0.79948E+02</wgt>
<wgt id='4100'>0.80179E+02</wgt>
<wgt id='4101'>0.79827E+02</wgt>
<wgt id='4102'>0.78973E+02</wgt>
<wgt id='4103'>0.78494E+02</wgt>
<wgt id='4200'>0.76193E+02</wgt>
<wgt id='4201'>0.76325E+02</wgt>
<wgt id='4202'>0.76262E+02</wgt>
<wgt id='4203'>0.75581E+02</wgt>
<wgt id='4204'>0.76708E+02</wgt>
<wgt id='4205'>0.76156E+02</wgt>
<wgt id='4206'>0.76302E+02</wgt>
<wgt id='4207'>0.75935E+02</wgt>
<wgt id='4208'>0.76388E+02</wgt>
<wgt id='4209'>0.76368E+02</wgt>
<wgt id='4210'>0.76178E+02</wgt>
<wgt id='4211'>0.77181E+02</wgt>
<wgt id='4212'>0.75409E+02</wgt>
<wgt id='4213'>0.76326E+02</wgt>
<wgt id='4214'>0.75979E+02</wgt>
<wgt id='4215'>0.76346E+02</wgt>
<wgt id='4216'>0.75723E+02</wgt>
<wgt id='4217'>0.75812E+02</wgt>
<wgt id='4218'>0.76485E+02</wgt>
<wgt id='4219'>0.75090E+02</wgt>
<wgt id='4220'>0.77168E+02</wgt>
<wgt id='4221'>0.75608E+02</wgt>
<wgt id='4222'>0.76833E+02</wgt>
<wgt id='4223'>0.76892E+02</wgt>
<wgt id='4224'>0.75443E+02</wgt>
<wgt id='4225'>0.74679E+02</wgt>
<wgt id='4226'>0.77532E+02</wgt>
<wgt id='4227'>0.76657E+02</wgt>
<wgt id='4228'>0.75792E+02</wgt>
<wgt id='4229'>0.75725E+02</wgt>
<wgt id='4230'>0.76467E+02</wgt>
<wgt id='4231'>0.76126E+02</wgt>
<wgt id='4232'>0.76226E+02</wgt>
<wgt id='4233'>0.76463E+02</wgt>
<wgt id='4234'>0.75805E+02</wgt>
<wgt id='4235'>0.76515E+02</wgt>
<wgt id='4236'>0.75918E+02</wgt>
<wgt id='4237'>0.76143E+02</wgt>
<wgt id='4238'>0.76091E+02</wgt>
<wgt id='4239'>0.77060E+02</wgt>
<wgt id='4240'>0.74643E+02</wgt>
<wgt id='4241'>0.75722E+02</wgt>
<wgt id='4242'>0.76698E+02</wgt>
<wgt id='4243'>0.76142E+02</wgt>
<wgt id='4244'>0.76402E+02</wgt>
<wgt id='4245'>0.75275E+02</wgt>
<wgt id='4246'>0.77110E+02</wgt>
<wgt id='4247'>0.75946E+02</wgt>
<wgt id='4248'>0.76312E+02</wgt>
<wgt id='4249'>0.77295E+02</wgt>
<wgt id='4250'>0.74880E+02</wgt>
<wgt id='4251'>0.75159E+02</wgt>
<wgt id='4252'>0.76764E+02</wgt>
<wgt id='4253'>0.75742E+02</wgt>
<wgt id='4254'>0.76511E+02</wgt>
<wgt id='4255'>0.76255E+02</wgt>
<wgt id='4256'>0.76025E+02</wgt>
<wgt id='4257'>0.74765E+02</wgt>
<wgt id='4258'>0.76606E+02</wgt>
<wgt id='4300'>0.78655E+02</wgt>
<wgt id='4301'>0.77557E+02</wgt>
<wgt id='5000'>0.79078E+02</wgt>
<wgt id='5001'>0.79109E+02</wgt>
<wgt id='5002'>0.79038E+02</wgt>
<wgt id='5003'>0.79097E+02</wgt>
<wgt id='5004'>0.79061E+02</wgt>
<wgt id='5005'>0.79075E+02</wgt>
<wgt id='5006'>0.79083E+02</wgt>
<wgt id='5007'>0.79126E+02</wgt>
<wgt id='5008'>0.79038E+02</wgt>
<wgt id='5009'>0.79183E+02</wgt>
<wgt id='5010'>0.78970E+02</wgt>
<wgt id='5011'>0.79231E+02</wgt>
<wgt id='5012'>0.78930E+02</wgt>
<wgt id='5013'>0.79192E+02</wgt>
<wgt id='5014'>0.78996E+02</wgt>
<wgt id='5015'>0.78693E+02</wgt>
<wgt id='5016'>0.78693E+02</wgt>
<wgt id='5017'>0.79527E+02</wgt>
<wgt id='5018'>0.78774E+02</wgt>
<wgt id='5019'>0.79387E+02</wgt>
<wgt id='5020'>0.78655E+02</wgt>
<wgt id='5021'>0.79171E+02</wgt>
<wgt id='5022'>0.78932E+02</wgt>
<wgt id='5023'>0.78979E+02</wgt>
<wgt id='5024'>0.79313E+02</wgt>
<wgt id='5025'>0.78765E+02</wgt>
<wgt id='5026'>0.79429E+02</wgt>
<wgt id='5027'>0.79110E+02</wgt>
<wgt id='5028'>0.78991E+02</wgt>
<wgt id='5029'>0.79669E+02</wgt>
<wgt id='5030'>0.78742E+02</wgt>
<wgt id='5031'>0.78794E+02</wgt>
<wgt id='5032'>0.79932E+02</wgt>
<wgt id='5033'>0.79087E+02</wgt>
<wgt id='5034'>0.79068E+02</wgt>
<wgt id='5035'>0.79079E+02</wgt>
<wgt id='5036'>0.79078E+02</wgt>
<wgt id='5037'>0.78991E+02</wgt>
<wgt id='5038'>0.79127E+02</wgt>
<wgt id='5039'>0.79287E+02</wgt>
<wgt id='5040'>0.78563E+02</wgt>
<wgt id='5041'>0.79385E+02</wgt>
<wgt id='5042'>0.78769E+02</wgt>
<wgt id='5043'>0.79174E+02</wgt>
<wgt id='5044'>0.79038E+02</wgt>
<wgt id='5045'>0.78900E+02</wgt>
<wgt id='5046'>0.79331E+02</wgt>
<wgt id='5047'>0.79109E+02</wgt>
<wgt id='5048'>0.78941E+02</wgt>
<wgt id='5049'>0.79053E+02</wgt>
<wgt id='5050'>0.79130E+02</wgt>
<wgt id='5051'>0.79194E+02</wgt>
<wgt id='5052'>0.78967E+02</wgt>
<wgt id='5053'>0.78924E+02</wgt>
<wgt id='5054'>0.79208E+02</wgt>
<wgt id='5055'>0.79141E+02</wgt>
<wgt id='5056'>0.79096E+02</wgt>
<wgt id='5057'>0.78846E+02</wgt>
<wgt id='5058'>0.79240E+02</wgt>
<wgt id='5059'>0.79069E+02</wgt>
<wgt id='5060'>0.79094E+02</wgt>
<wgt id='5061'>0.79305E+02</wgt>
<wgt id='5062'>0.79078E+02</wgt>
<wgt id='5063'>0.79347E+02</wgt>
<wgt id='5064'>0.79012E+02</wgt>
<wgt id='5100'>0.79078E+02</wgt>
<wgt id='5101'>0.79107E+02</wgt>
<wgt id='6000'>0.79290E+02</wgt>
<wgt id='6001'>0.79465E+02</wgt>
<wgt id='6002'>0.79432E+02</wgt>
<wgt id='6003'>0.79272E+02</wgt>
<wgt id='6004'>0.79225E+02</wgt>
<wgt id='6005'>0.79202E+02</wgt>
<wgt id='6006'>0.79561E+02</wgt>
<wgt id='6007'>0.79191E+02</wgt>
<wgt id='6008'>0.78481E+02</wgt>
<wgt id='6009'>0.79583E+02</wgt>
<wgt id='6010'>0.78201E+02</wgt>
<wgt id='6011'>0.79259E+02</wgt>
<wgt id='6012'>0.79543E+02</wgt>
<wgt id='6013'>0.79086E+02</wgt>
<wgt id='6014'>0.79242E+02</wgt>
<wgt id='6015'>0.78788E+02</wgt>
<wgt id='6016'>0.79331E+02</wgt>
<wgt id='6017'>0.79325E+02</wgt>
<wgt id='6018'>0.79189E+02</wgt>
<wgt id='6019'>0.79332E+02</wgt>
<wgt id='6020'>0.79458E+02</wgt>
<wgt id='6021'>0.79372E+02</wgt>
<wgt id='6022'>0.79270E+02</wgt>
<wgt id='6023'>0.79327E+02</wgt>
<wgt id='6024'>0.79358E+02</wgt>
<wgt id='6025'>0.79507E+02</wgt>
<wgt id='6026'>0.79340E+02</wgt>
<wgt id='6027'>0.79320E+02</wgt>
<wgt id='6028'>0.79170E+02</wgt>
<wgt id='6029'>0.79169E+02</wgt>
<wgt id='6030'>0.79972E+02</wgt>
<wgt id='6031'>0.79143E+02</wgt>
<wgt id='6032'>0.79319E+02</wgt>
<wgt id='6033'>0.79174E+02</wgt>
<wgt id='6034'>0.79483E+02</wgt>
<wgt id='6035'>0.79334E+02</wgt>
<wgt id='6036'>0.79684E+02</wgt>
<wgt id='6037'>0.79307E+02</wgt>
<wgt id='6038'>0.79354E+02</wgt>
<wgt id='6039'>0.79401E+02</wgt>
<wgt id='6040'>0.79287E+02</wgt>
<wgt id='6041'>0.78045E+02</wgt>
<wgt id='6042'>0.80572E+02</wgt>
<wgt id='7000'>0.78853E+02</wgt>
<wgt id='7001'>0.78587E+02</wgt>
<wgt id='7002'>0.78750E+02</wgt>
<wgt id='7003'>0.78651E+02</wgt>
<wgt id='7004'>0.78686E+02</wgt>
<wgt id='7005'>0.78787E+02</wgt>
<wgt id='7006'>0.78550E+02</wgt>
<wgt id='7007'>0.79153E+02</wgt>
<wgt id='7008'>0.78197E+02</wgt>
<wgt id='7009'>0.78385E+02</wgt>
<wgt id='7010'>0.78963E+02</wgt>
<wgt id='7011'>0.78937E+02</wgt>
<wgt id='7012'>0.78403E+02</wgt>
<wgt id='7013'>0.78520E+02</wgt>
<wgt id='7014'>0.78809E+02</wgt>
<wgt id='7015'>0.78544E+02</wgt>
<wgt id='7016'>0.78570E+02</wgt>
<wgt id='7017'>0.78696E+02</wgt>
<wgt id='7018'>0.78642E+02</wgt>
<wgt id='7019'>0.78491E+02</wgt>
<wgt id='7020'>0.78854E+02</wgt>
<wgt id='7021'>0.78608E+02</wgt>
<wgt id='7022'>0.78701E+02</wgt>
<wgt id='7023'>0.78461E+02</wgt>
<wgt id='7024'>0.78888E+02</wgt>
<wgt id='7025'>0.77900E+02</wgt>
<wgt id='7026'>0.79353E+02</wgt>
<wgt id='7027'>0.78389E+02</wgt>
<wgt id='7028'>0.79001E+02</wgt>
<wgt id='8000'>0.79412E+02</wgt>
<wgt id='8001'>0.79398E+02</wgt>
<wgt id='8002'>0.79436E+02</wgt>
<wgt id='8003'>0.79415E+02</wgt>
<wgt id='8004'>0.79410E+02</wgt>
<wgt id='8005'>0.79265E+02</wgt>
<wgt id='8006'>0.79475E+02</wgt>
<wgt id='8007'>0.79538E+02</wgt>
<wgt id='8008'>0.79587E+02</wgt>
<wgt id='8009'>0.79741E+02</wgt>
<wgt id='8010'>0.79333E+02</wgt>
<wgt id='8011'>0.79418E+02</wgt>
<wgt id='8012'>0.79137E+02</wgt>
<wgt id='8013'>0.79263E+02</wgt>
<wgt id='8014'>0.79568E+02</wgt>
<wgt id='8015'>0.79366E+02</wgt>
<wgt id='8016'>0.79475E+02</wgt>
<wgt id='8017'>0.79422E+02</wgt>
<wgt id='8018'>0.79575E+02</wgt>
<wgt id='8019'>0.79504E+02</wgt>
<wgt id='8020'>0.79292E+02</wgt>
<wgt id='8021'>0.79365E+02</wgt>
<wgt id='8022'>0.79183E+02</wgt>
<wgt id='8023'>0.79386E+02</wgt>
<wgt id='8024'>0.79276E+02</wgt>
<wgt id='8025'>0.79475E+02</wgt>
<wgt id='8026'>0.79542E+02</wgt>
<wgt id='8027'>0.79419E+02</wgt>
<wgt id='8028'>0.79474E+02</wgt>
<wgt id='8029'>0.79086E+02</wgt>
<wgt id='3000'>0.81104E+02</wgt>
<wgt id='3001'>0.80703E+02</wgt>
<wgt id='3002'>0.80365E+02</wgt>
<wgt id='3003'>0.82912E+02</wgt>
<wgt id='3004'>0.81856E+02</wgt>
<wgt id='3005'>0.80696E+02</wgt>
<wgt id='3006'>0.83482E+02</wgt>
<wgt id='3007'>0.80610E+02</wgt>
<wgt id='3008'>0.80123E+02</wgt>
<wgt id='3009'>0.82232E+02</wgt>
<wgt id='3010'>0.82749E+02</wgt>
<wgt id='3011'>0.82642E+02</wgt>
<wgt id='3012'>0.81401E+02</wgt>
<wgt id='3013'>0.80272E+02</wgt>
<wgt id='3014'>0.80224E+02</wgt>
<wgt id='3015'>0.81659E+02</wgt>
<wgt id='3016'>0.82383E+02</wgt>
<wgt id='3017'>0.82683E+02</wgt>
<wgt id='3018'>0.80958E+02</wgt>
<wgt id='3019'>0.79511E+02</wgt>
<wgt id='3020'>0.80558E+02</wgt>
<wgt id='3021'>0.79537E+02</wgt>
<wgt id='3022'>0.79260E+02</wgt>
<wgt id='3023'>0.79570E+02</wgt>
<wgt id='3024'>0.79598E+02</wgt>
<wgt id='3025'>0.79725E+02</wgt>
<wgt id='3026'>0.80687E+02</wgt>
<wgt id='3027'>0.79817E+02</wgt>
<wgt id='3028'>0.80806E+02</wgt>
<wgt id='3029'>0.82390E+02</wgt>
<wgt id='3030'>0.82976E+02</wgt>
<wgt id='3031'>0.81939E+02</wgt>
<wgt id='3032'>0.82496E+02</wgt>
<wgt id='3033'>0.80235E+02</wgt>
<wgt id='3034'>0.80817E+02</wgt>
<wgt id='3035'>0.82299E+02</wgt>
<wgt id='3036'>0.80876E+02</wgt>
<wgt id='3037'>0.81186E+02</wgt>
<wgt id='3038'>0.80770E+02</wgt>
<wgt id='3039'>0.81637E+02</wgt>
<wgt id='3040'>0.80879E+02</wgt>
<wgt id='3041'>0.81391E+02</wgt>
<wgt id='3042'>0.80493E+02</wgt>
<wgt id='3043'>0.81010E+02</wgt>
<wgt id='3044'>0.80620E+02</wgt>
<wgt id='3045'>0.81206E+02</wgt>
<wgt id='3046'>0.81679E+02</wgt>
<wgt id='3047'>0.79466E+02</wgt>
<wgt id='3048'>0.79208E+02</wgt>
<wgt id='3049'>0.81952E+02</wgt>
<wgt id='3050'>0.82451E+02</wgt>
<wgt id='3051'>0.81366E+02</wgt>
<wgt id='3052'>0.79995E+02</wgt>
<wgt id='3053'>0.80738E+02</wgt>
<wgt id='3054'>0.81473E+02</wgt>
<wgt id='3055'>0.79343E+02</wgt>
<wgt id='3056'>0.80609E+02</wgt>
<wgt id='3057'>0.80576E+02</wgt>
<wgt id='3058'>0.79396E+02</wgt>
<wgt id='3059'>0.82786E+02</wgt>
<wgt id='3060'>0.81421E+02</wgt>
<wgt id='3061'>0.81131E+02</wgt>
<wgt id='3062'>0.80801E+02</wgt>
<wgt id='3063'>0.78973E+02</wgt>
<wgt id='3064'>0.80586E+02</wgt>
<wgt id='3065'>0.80409E+02</wgt>
<wgt id='3066'>0.81381E+02</wgt>
<wgt id='3067'>0.79438E+02</wgt>
<wgt id='3068'>0.81990E+02</wgt>
<wgt id='3069'>0.80595E+02</wgt>
<wgt id='3070'>0.79643E+02</wgt>
<wgt id='3071'>0.82582E+02</wgt>
<wgt id='3072'>0.81396E+02</wgt>
<wgt id='3073'>0.82079E+02</wgt>
<wgt id='3074'>0.82417E+02</wgt>
<wgt id='3075'>0.82502E+02</wgt>
<wgt id='3076'>0.82820E+02</wgt>
<wgt id='3077'>0.80015E+02</wgt>
<wgt id='3078'>0.82115E+02</wgt>
<wgt id='3079'>0.80962E+02</wgt>
<wgt id='3080'>0.80920E+02</wgt>
<wgt id='3081'>0.79276E+02</wgt>
<wgt id='3082'>0.82383E+02</wgt>
<wgt id='3083'>0.81123E+02</wgt>
<wgt id='3084'>0.81093E+02</wgt>
<wgt id='3085'>0.83190E+02</wgt>
<wgt id='3086'>0.79429E+02</wgt>
<wgt id='3087'>0.82037E+02</wgt>
<wgt id='3088'>0.82427E+02</wgt>
<wgt id='3089'>0.83772E+02</wgt>
<wgt id='3090'>0.80910E+02</wgt>
<wgt id='3091'>0.80303E+02</wgt>
<wgt id='3092'>0.82433E+02</wgt>
<wgt id='3093'>0.81765E+02</wgt>
<wgt id='3094'>0.80976E+02</wgt>
<wgt id='3095'>0.80979E+02</wgt>
<wgt id='3096'>0.80348E+02</wgt>
<wgt id='3097'>0.79979E+02</wgt>
<wgt id='3098'>0.81897E+02</wgt>
<wgt id='3099'>0.80262E+02</wgt>
<wgt id='3100'>0.80583E+02</wgt>
<wgt id='3200'>0.78565E+02</wgt>
<wgt id='3201'>0.79009E+02</wgt>
<wgt id='3202'>0.77693E+02</wgt>
<wgt id='3203'>0.78422E+02</wgt>
<wgt id='3204'>0.78002E+02</wgt>
<wgt id='3205'>0.79230E+02</wgt>
<wgt id='3206'>0.78913E+02</wgt>
<wgt id='3207'>0.79233E+02</wgt>
<wgt id='3208'>0.79001E+02</wgt>
<wgt id='3209'>0.78409E+02</wgt>
<wgt id='3210'>0.78508E+02</wgt>
<wgt id='3211'>0.79439E+02</wgt>
<wgt id='3212'>0.77579E+02</wgt>
<wgt id='3213'>0.78216E+02</wgt>
<wgt id='3214'>0.77820E+02</wgt>
<wgt id='3215'>0.78583E+02</wgt>
<wgt id='3216'>0.79118E+02</wgt>
<wgt id='3217'>0.78883E+02</wgt>
<wgt id='3218'>0.78563E+02</wgt>
<wgt id='3219'>0.78561E+02</wgt>
<wgt id='3220'>0.77940E+02</wgt>
<wgt id='3221'>0.79313E+02</wgt>
<wgt id='3222'>0.79477E+02</wgt>
<wgt id='3223'>0.78392E+02</wgt>
<wgt id='3224'>0.78289E+02</wgt>
<wgt id='3225'>0.79059E+02</wgt>
<wgt id='3226'>0.78735E+02</wgt>
<wgt id='3227'>0.77936E+02</wgt>
<wgt id='3228'>0.77978E+02</wgt>
<wgt id='3229'>0.78927E+02</wgt>
<wgt id='3230'>0.79105E+02</wgt>
<wgt id='3231'>0.78843E+02</wgt>
<wgt id='3232'>0.78992E+02</wgt>
<wgt id='3233'>0.79000E+02</wgt>
<wgt id='3234'>0.78741E+02</wgt>
<wgt id='3235'>0.77960E+02</wgt>
<wgt id='3236'>0.77802E+02</wgt>
<wgt id='3237'>0.78204E+02</wgt>
<wgt id='3238'>0.78504E+02</wgt>
<wgt id='3239'>0.78165E+02</wgt>
<wgt id='3240'>0.78615E+02</wgt>
<wgt id='3241'>0.79239E+02</wgt>
<wgt id='3242'>0.77889E+02</wgt>
<wgt id='3243'>0.77654E+02</wgt>
<wgt id='3244'>0.78302E+02</wgt>
<wgt id='3245'>0.79012E+02</wgt>
<wgt id='3246'>0.78092E+02</wgt>
<wgt id='3247'>0.78512E+02</wgt>
<wgt id='3248'>0.78274E+02</wgt>
<wgt id='3249'>0.78355E+02</wgt>
<wgt id='3250'>0.78995E+02</wgt>
<wgt id='3251'>0.78615E+02</wgt>
<wgt id='3252'>0.78658E+02</wgt>
<wgt id='3253'>0.78527E+02</wgt>
<wgt id='3254'>0.78471E+02</wgt>
<wgt id='3255'>0.78529E+02</wgt>
<wgt id='3256'>0.77848E+02</wgt>
<wgt id='3257'>0.78386E+02</wgt>
<wgt id='3258'>0.79010E+02</wgt>
<wgt id='3259'>0.78812E+02</wgt>
<wgt id='3260'>0.78613E+02</wgt>
<wgt id='3261'>0.79084E+02</wgt>
<wgt id='3262'>0.78103E+02</wgt>
<wgt id='3263'>0.78883E+02</wgt>
<wgt id='3264'>0.78877E+02</wgt>
<wgt id='3265'>0.78947E+02</wgt>
<wgt id='3266'>0.78204E+02</wgt>
<wgt id='3267'>0.78424E+02</wgt>
<wgt id='3268'>0.79417E+02</wgt>
<wgt id='3269'>0.78719E+02</wgt>
<wgt id='3270'>0.78644E+02</wgt>
<wgt id='3271'>0.78704E+02</wgt>
<wgt id='3272'>0.79068E+02</wgt>
<wgt id='3273'>0.78586E+02</wgt>
<wgt id='3274'>0.78955E+02</wgt>
<wgt id='3275'>0.78721E+02</wgt>
<wgt id='3276'>0.78355E+02</wgt>
<wgt id='3277'>0.77882E+02</wgt>
<wgt id='3278'>0.78441E+02</wgt>
<wgt id='3279'>0.79206E+02</wgt>
<wgt id='3280'>0.78368E+02</wgt>
<wgt id='3281'>0.78761E+02</wgt>
<wgt id='3282'>0.78958E+02</wgt>
<wgt id='3283'>0.78790E+02</wgt>
<wgt id='3284'>0.78628E+02</wgt>
<wgt id='3285'>0.77879E+02</wgt>
<wgt id='3286'>0.78532E+02</wgt>
<wgt id='3287'>0.78063E+02</wgt>
<wgt id='3288'>0.79043E+02</wgt>
<wgt id='3289'>0.79792E+02</wgt>
<wgt id='3290'>0.79741E+02</wgt>
<wgt id='3291'>0.77262E+02</wgt>
<wgt id='3292'>0.77368E+02</wgt>
<wgt id='3293'>0.78234E+02</wgt>
<wgt id='3294'>0.77218E+02</wgt>
<wgt id='3295'>0.77936E+02</wgt>
<wgt id='3296'>0.79774E+02</wgt>
<wgt id='3297'>0.78316E+02</wgt>
<wgt id='3298'>0.78679E+02</wgt>
<wgt id='3299'>0.78056E+02</wgt>
<wgt id='3300'>0.79027E+02</wgt>
<wgt id='3301'>0.76858E+02</wgt>
<wgt id='3302'>0.80189E+02</wgt>
<wgt id='3400'>0.78730E+02</wgt>
<wgt id='3401'>0.78759E+02</wgt>
<wgt id='3402'>0.78436E+02</wgt>
<wgt id='3403'>0.79605E+02</wgt>
<wgt id='3404'>0.79939E+02</wgt>
<wgt id='3405'>0.79501E+02</wgt>
<wgt id='3406'>0.78681E+02</wgt>
<wgt id='3407'>0.78168E+02</wgt>
<wgt id='3408'>0.80277E+02</wgt>
<wgt id='3409'>0.79782E+02</wgt>
<wgt id='3410'>0.78728E+02</wgt>
<wgt id='3411'>0.79200E+02</wgt>
<wgt id='3412'>0.79446E+02</wgt>
<wgt id='3413'>0.78604E+02</wgt>
<wgt id='3414'>0.78567E+02</wgt>
<wgt id='3415'>0.78776E+02</wgt>
<wgt id='3416'>0.78269E+02</wgt>
<wgt id='3417'>0.78825E+02</wgt>
<wgt id='3418'>0.78256E+02</wgt>
<wgt id='3419'>0.78313E+02</wgt>
<wgt id='3420'>0.79227E+02</wgt>
<wgt id='3421'>0.79168E+02</wgt>
<wgt id='3422'>0.79426E+02</wgt>
<wgt id='3423'>0.79314E+02</wgt>
<wgt id='3424'>0.79017E+02</wgt>
<wgt id='3425'>0.78557E+02</wgt>
<wgt id='3426'>0.79114E+02</wgt>
<wgt id='3427'>0.78826E+02</wgt>
<wgt id='3428'>0.79620E+02</wgt>
<wgt id='3429'>0.78150E+02</wgt>
<wgt id='3430'>0.79161E+02</wgt>
<wgt id='3431'>0.78769E+02</wgt>
<wgt id='3432'>0.78499E+02</wgt>
<wgt id='3433'>0.77350E+02</wgt>
<wgt id='3434'>0.78646E+02</wgt>
<wgt id='3435'>0.78810E+02</wgt>
<wgt id='3436'>0.78847E+02</wgt>
<wgt id='3437'>0.78636E+02</wgt>
<wgt id='3438'>0.78001E+02</wgt>
<wgt id='3439'>0.79387E+02</wgt>
<wgt id='3440'>0.78830E+02</wgt>
<wgt id='3441'>0.78684E+02</wgt>
<wgt id='3442'>0.77258E+02</wgt>
<wgt id='3443'>0.78513E+02</wgt>
<wgt id='3444'>0.78575E+02</wgt>
<wgt id='3445'>0.78322E+02</wgt>
<wgt id='3446'>0.79395E+02</wgt>
<wgt id='3447'>0.80215E+02</wgt>
<wgt id='3448'>0.79243E+02</wgt>
<wgt id='3449'>0.79387E+02</wgt>
<wgt id='3450'>0.78709E+02</wgt>
<wgt id='3451'>0.79736E+02</wgt>
<wgt id='3452'>0.78320E+02</wgt>
<wgt id='3453'>0.78154E+02</wgt>
<wgt id='3454'>0.77797E+02</wgt>
<wgt id='3455'>0.79761E+02</wgt>
<wgt id='3456'>0.79081E+02</wgt>
<wgt id='3457'>0.79661E+02</wgt>
<wgt id='3458'>0.78935E+02</wgt>
<wgt id='3459'>0.78469E+02</wgt>
<wgt id='3460'>0.78478E+02</wgt>
<wgt id='3461'>0.78203E+02</wgt>
<wgt id='3462'>0.78198E+02</wgt>
<wgt id='3463'>0.77941E+02</wgt>
<wgt id='3464'>0.79179E+02</wgt>
<wgt id='3465'>0.78471E+02</wgt>
<wgt id='3466'>0.79054E+02</wgt>
<wgt id='3467'>0.78488E+02</wgt>
<wgt id='3468'>0.77778E+02</wgt>
<wgt id='3469'>0.78899E+02</wgt>
<wgt id='3470'>0.78792E+02</wgt>
<wgt id='3471'>0.78654E+02</wgt>
<wgt id='3472'>0.78168E+02</wgt>
<wgt id='3473'>0.78946E+02</wgt>
<wgt id='3474'>0.78671E+02</wgt>
<wgt id='3475'>0.78517E+02</wgt>
<wgt id='3476'>0.78926E+02</wgt>
<wgt id='3477'>0.77980E+02</wgt>
<wgt id='3478'>0.79059E+02</wgt>
<wgt id='3479'>0.79643E+02</wgt>
<wgt id='3480'>0.78082E+02</wgt>
<wgt id='3481'>0.78838E+02</wgt>
<wgt id='3482'>0.78327E+02</wgt>
<wgt id='3483'>0.77324E+02</wgt>
<wgt id='3484'>0.78639E+02</wgt>
<wgt id='3485'>0.78465E+02</wgt>
<wgt id='3486'>0.77543E+02</wgt>
<wgt id='3487'>0.79030E+02</wgt>
<wgt id='3488'>0.79572E+02</wgt>
<wgt id='3489'>0.77974E+02</wgt>
<wgt id='3490'>0.79028E+02</wgt>
<wgt id='3491'>0.78624E+02</wgt>
<wgt id='3492'>0.79157E+02</wgt>
<wgt id='3493'>0.78042E+02</wgt>
<wgt id='3494'>0.77044E+02</wgt>
<wgt id='3495'>0.78860E+02</wgt>
<wgt id='3496'>0.77669E+02</wgt>
<wgt id='3497'>0.78136E+02</wgt>
<wgt id='3498'>0.78884E+02</wgt>
<wgt id='3499'>0.78805E+02</wgt>
<wgt id='3500'>0.79264E+02</wgt>
</rwgt>
</event>
<event>
     13 322200  8.11039E+01  1.35231E+02 -1.00000E+00  1.16763E-01
      21    -1     0     0   502   503  0.000000000E+00  0.000000000E+00  3.695257015E+02  3.695257015E+02  0.000000000E+00  0.00000E+00  9.000E+00
      21    -1     0     0   504   505  0.000000000E+00  0.000000000E+00 -9.011708220E+02  9.011708220E+02  0.000000000E+00  0.00000E+00  9.000E+00
       6     2     1     2   502     0 -1.648613591E+02 -2.349863958E+01  2.648844255E+02  3.571417289E+02  1.722062772E+02  0.00000E+00  9.000E+00
      -6     2     1     2     0   505  4.293110701E+01  8.198341910E+01 -7.425882212E+02  7.679624791E+02  1.725246130E+02  0.00000E+00  9.000E+00
      21     1     1     2   504   503  1.219302521E+02 -5.848477953E+01 -5.394132477E+01  1.455923155E+02  3.873843386E-06  0.00000E+00  9.000E+00
      24     2     3     3     0     0 -1.388133063E+02 -7.854058517E+01  1.960469999E+02  2.650965683E+02  8.002503883E+01  0.00000E+00  9.000E+00
       5     1     3     3   502     0 -2.604805277E+01  5.504194560E+01  6.883742558E+01  9.204516060E+01  5.060000000E+00  0.00000E+00 -1.000E+00
     -24     2     4     4     0     0 -1.149118625E+01  1.497119296E+00 -1.592342652E+02  1.765512245E+02  7.536905824E+01  0.00000E+00  9.000E+00
      -5     1     4     4     0   505  5.442229326E+01  8.048629981E+01 -5.833539560E+02  5.914112546E+02  5.060000000E+00  0.00000E+00  1.000E+00
     -11     1     6     6     0     0 -8.102575204E-02 -2.604872472E+01  1.189795856E+01  2.863745874E+01  5.100000000E-04  0.00000E+00  1.000E+00
      12     1     6     6     0     0 -1.387322805E+02 -5.249186045E+01  1.841490413E+02  2.364591096E+02  0.000000000E+00  0.00000E+00 -1.000E+00
      13     1     8     8     0     0  2.831277953E+01  1.751779170E+01 -7.286828820E+01  8.011420042E+01  1.057000000E-01  0.00000E+00 -1.000E+00
     -14     1     8     8     0     0 -3.980396578E+01 -1.602067240E+01 -8.636597698E+01  9.643702409E+01  0.000000000E+00  0.00000E+00  1.000E+00
#rwgt            1           1   2689.5079272734993               10       10686           0
<rwgt>
<wgt id='1001'>0.81104E+02</wgt>
<wgt id='1002'>0.74065E+02</wgt>
<wgt id='1003'>0.89481E+02</wgt>
<wgt id='1004'>0.75620E+02</wgt>
<wgt id='1005'>0.68779E+02</wgt>
<wgt id='1006'>0.83762E+02</wgt>
<wgt id='1007'>0.85273E+02</wgt>
<wgt id='1008'>0.78355E+02</wgt>
<wgt id='1009'>0.93505E+02</wgt>
<wgt id='2000'>0.81104E+02</wgt>
<wgt id='2001'>0.80916E+02</wgt>
<wgt id='2002'>0.80911E+02</wgt>
<wgt id='2003'>0.81155E+02</wgt>
<wgt id='2004'>0.81359E+02</wgt>
<wgt id='2005'>0.80850E+02</wgt>
<wgt id='2006'>0.81269E+02</wgt>
<wgt id='2007'>0.80941E+02</wgt>
<wgt id='2008'>0.80996E+02</wgt>
<wgt id='2009'>0.81235E+02</wgt>
<wgt id='2010'>0.81033E+02</wgt>
<wgt id='2011'>0.81434E+02</wgt>
<wgt id='2012'>0.81172E+02</wgt>
<wgt id='2013'>0.81353E+02</wgt>
<wgt id='2014'>0.81367E+02</wgt>
<wgt id='2015'>0.81212E+02</wgt>
<wgt id='2016'>0.81339E+02</wgt>
<wgt id='2017'>0.81410E+02</wgt>
<wgt id='2018'>0.80725E+02</wgt>
<wgt id='2019'>0.80309E+02</wgt>
<wgt id='2020'>0.81125E+02</wgt>
<wgt id='2021'>0.80947E+02</wgt>
<wgt id='2022'>0.81034E+02</wgt>
<wgt id='2023'>0.81380E+02</wgt>
<wgt id='2024'>0.80637E+02</wgt>
<wgt id='2025'>0.81279E+02</wgt>
<wgt id='2026'>0.80938E+02</wgt>
<wgt id='2027'>0.81122E+02</wgt>
<wgt id='2028'>0.81229E+02</wgt>
<wgt id='2029'>0.80783E+02</wgt>
<wgt id='2030'>0.81366E+02</wgt>
<wgt id='2031'>0.80531E+02</wgt>
<wgt id='2032'>0.80882E+02</wgt>
<wgt id='2033'>0.80921E+02</wgt>
<wgt id='2034'>0.80744E+02</wgt>
<wgt id='2035'>0.81272E+02</wgt>
<wgt id='2036'>0.81299E+02</wgt>
<wgt id='2037'>0.80992E+02</wgt>
<wgt id='2038'>0.80916E+02</wgt>
<wgt id='2039'>0.81074E+02</wgt>
<wgt id='2040'>0.80911E+02</wgt>
<wgt id='2041'>0.81055E+02</wgt>
<wgt id='2042'>0.81229E+02</wgt>
<wgt id='2043'>0.81027E+02</wgt>
<wgt id='2044'>0.81202E+02</wgt>
<wgt id='2045'>0.81100E+02</wgt>
<wgt id='2046'>0.80937E+02</wgt>
<wgt id='2047'>0.81040E+02</wgt>
<wgt id='2048'>0.81061E+02</wgt>
<wgt id='2049'>0.80972E+02</wgt>
<wgt id='2050'>0.81005E+02</wgt>
<wgt id='2051'>0.81046E+02</wgt>
<wgt id='2052'>0.81272E+02</wgt>
<wgt id='2053'>0.81086E+02</wgt>
<wgt id='2054'>0.81063E+02</wgt>
<wgt id='2055'>0.81119E+02</wgt>
<wgt id='2056'>0.80992E+02</wgt>
<wgt id='2057'>0.81133E+02</wgt>
<wgt id='2058'>0.81177E+02</wgt>
<wgt id='2059'>0.81091E+02</wgt>
<wgt id='2060'>0.81081E+02</wgt>
<wgt id='2061'>0.81016E+02</wgt>
<wgt id='2062'>0.81242E+02</wgt>
<wgt id='2063'>0.81091E+02</wgt>
<wgt id='2064'>0.81127E+02</wgt>
<wgt id='2065'>0.81226E+02</wgt>
<wgt id='2066'>0.81035E+02</wgt>
<wgt id='2067'>0.81120E+02</wgt>
<wgt id='2068'>0.81149E+02</wgt>
<wgt id='2069'>0.81103E+02</wgt>
<wgt id='2070'>0.81131E+02</wgt>
<wgt id='2071'>0.81104E+02</wgt>
<wgt id='2072'>0.81111E+02</wgt>
<wgt id='2073'>0.81151E+02</wgt>
<wgt id='2074'>0.81117E+02</wgt>
<wgt id='2075'>0.81083E+02</wgt>
<wgt id='2076'>0.81051E+02</wgt>
<wgt id='2077'>0.81158E+02</wgt>
<wgt id='2078'>0.81130E+02</wgt>
<wgt id='2079'>0.81055E+02</wgt>
<wgt id='2080'>0.81125E+02</wgt>
<wgt id='2081'>0.81104E+02</wgt>
<wgt id='2082'>0.81108E+02</wgt>
<wgt id='2083'>0.81147E+02</wgt>
<wgt id='2084'>0.81111E+02</wgt>
<wgt id='2085'>0.81096E+02</wgt>
<wgt id='2086'>0.81066E+02</wgt>
<wgt id='2087'>0.81108E+02</wgt>
<wgt id='2088'>0.81087E+02</wgt>
<wgt id='2089'>0.81115E+02</wgt>
<wgt id='2090'>0.81146E+02</wgt>
<wgt id='2091'>0.81099E+02</wgt>
<wgt id='2092'>0.81133E+02</wgt>
<wgt id='2093'>0.81079E+02</wgt>
<wgt id='2094'>0.81102E+02</wgt>
<wgt id='2095'>0.81123E+02</wgt>
<wgt id='2096'>0.81079E+02</wgt>
<wgt id='2097'>0.81123E+02</wgt>
<wgt id='2098'>0.81082E+02</wgt>
<wgt id='2099'>0.81135E+02</wgt>
<wgt id='2100'>0.81104E+02</wgt>
<wgt id='2101'>0.79469E+02</wgt>
<wgt id='2102'>0.83347E+02</wgt>
<wgt id='2200'>0.81088E+02</wgt>
<wgt id='2201'>0.71275E+02</wgt>
<wgt id='2202'>0.73409E+02</wgt>
<wgt id='2203'>0.75398E+02</wgt>
<wgt id='2204'>0.76762E+02</wgt>
<wgt id='2205'>0.80057E+02</wgt>
<wgt id='2206'>0.82335E+02</wgt>
<wgt id='2207'>0.85254E+02</wgt>
<wgt id='2208'>0.87436E+02</wgt>
<wgt id='2300'>0.85982E+02</wgt>
<wgt id='2301'>0.85990E+02</wgt>
<wgt id='2302'>0.86077E+02</wgt>
<wgt id='2303'>0.85746E+02</wgt>
<wgt id='2304'>0.86279E+02</wgt>
<wgt id='2305'>0.85870E+02</wgt>
<wgt id='2306'>0.85847E+02</wgt>
<wgt id='2307'>0.85936E+02</wgt>
<wgt id='2308'>0.85983E+02</wgt>
<wgt id='2309'>0.86090E+02</wgt>
<wgt id='2310'>0.85853E+02</wgt>
<wgt id='2311'>0.85763E+02</wgt>
<wgt id='2312'>0.85834E+02</wgt>
<wgt id='2313'>0.86359E+02</wgt>
<wgt id='2314'>0.85802E+02</wgt>
<wgt id='2315'>0.85659E+02</wgt>
<wgt id='2316'>0.86058E+02</wgt>
<wgt id='2317'>0.85747E+02</wgt>
<wgt id='2318'>0.86042E+02</wgt>
<wgt id='2319'>0.86202E+02</wgt>
<wgt id='2320'>0.86136E+02</wgt>
<wgt id='2321'>0.86203E+02</wgt>
<wgt id='2322'>0.85952E+02</wgt>
<wgt id='2323'>0.85947E+02</wgt>
<wgt id='2324'>0.85941E+02</wgt>
<wgt id='2325'>0.86051E+02</wgt>
<wgt id='2326'>0.85840E+02</wgt>
<wgt id='2327'>0.86073E+02</wgt>
<wgt id='2328'>0.85863E+02</wgt>
<wgt id='2329'>0.85696E+02</wgt>
<wgt id='2330'>0.86596E+02</wgt>
<wgt id='2331'>0.86302E+02</wgt>
<wgt id='2332'>0.85810E+02</wgt>
<wgt id='2333'>0.85936E+02</wgt>
<wgt id='2334'>0.85941E+02</wgt>
<wgt id='2335'>0.85901E+02</wgt>
<wgt id='2336'>0.86074E+02</wgt>
<wgt id='2337'>0.86435E+02</wgt>
<wgt id='2338'>0.85936E+02</wgt>
<wgt id='2339'>0.86150E+02</wgt>
<wgt id='2340'>0.86138E+02</wgt>
<wgt id='2341'>0.86045E+02</wgt>
<wgt id='2342'>0.85613E+02</wgt>
<wgt id='2343'>0.85622E+02</wgt>
<wgt id='2344'>0.86247E+02</wgt>
<wgt id='2345'>0.86234E+02</wgt>
<wgt id='2346'>0.86320E+02</wgt>
<wgt id='2347'>0.85926E+02</wgt>
<wgt id='2348'>0.86211E+02</wgt>
<wgt id='2349'>0.85959E+02</wgt>
<wgt id='2350'>0.85779E+02</wgt>
<wgt id='2351'>0.86393E+02</wgt>
<wgt id='2352'>0.85918E+02</wgt>
<wgt id='2353'>0.85774E+02</wgt>
<wgt id='2354'>0.85928E+02</wgt>
<wgt id='2355'>0.86033E+02</wgt>
<wgt id='2356'>0.86036E+02</wgt>
<wgt id='2357'>0.85780E+02</wgt>
<wgt id='2358'>0.86057E+02</wgt>
<wgt id='2359'>0.85829E+02</wgt>
<wgt id='2360'>0.86113E+02</wgt>
<wgt id='2361'>0.85891E+02</wgt>
<wgt id='2362'>0.86020E+02</wgt>
<wgt id='2363'>0.86030E+02</wgt>
<wgt id='2364'>0.85868E+02</wgt>
<wgt id='2365'>0.85940E+02</wgt>
<wgt id='2366'>0.86044E+02</wgt>
<wgt id='2367'>0.85850E+02</wgt>
<wgt id='2368'>0.86050E+02</wgt>
<wgt id='2369'>0.85912E+02</wgt>
<wgt id='2370'>0.85995E+02</wgt>
<wgt id='2371'>0.85934E+02</wgt>
<wgt id='2372'>0.86009E+02</wgt>
<wgt id='2373'>0.85900E+02</wgt>
<wgt id='2374'>0.86097E+02</wgt>
<wgt id='2375'>0.85989E+02</wgt>
<wgt id='2376'>0.85975E+02</wgt>
<wgt id='2377'>0.86004E+02</wgt>
<wgt id='2378'>0.85988E+02</wgt>
<wgt id='2379'>0.85971E+02</wgt>
<wgt id='2380'>0.85941E+02</wgt>
<wgt id='2381'>0.86032E+02</wgt>
<wgt id='2382'>0.85999E+02</wgt>
<wgt id='2383'>0.85989E+02</wgt>
<wgt id='2384'>0.86017E+02</wgt>
<wgt id='2385'>0.85962E+02</wgt>
<wgt id='2386'>0.85974E+02</wgt>
<wgt id='2387'>0.86038E+02</wgt>
<wgt id='2388'>0.85930E+02</wgt>
<wgt id='2389'>0.85979E+02</wgt>
<wgt id='2390'>0.85916E+02</wgt>
<wgt id='2391'>0.85957E+02</wgt>
<wgt id='2392'>0.85994E+02</wgt>
<wgt id='2393'>0.85975E+02</wgt>
<wgt id='2394'>0.86005E+02</wgt>
<wgt id='2395'>0.85933E+02</wgt>
<wgt id='2396'>0.85973E+02</wgt>
<wgt id='2397'>0.85923E+02</wgt>
<wgt id='2398'>0.85984E+02</wgt>
<wgt id='2399'>0.85987E+02</wgt>
<wgt id='2400'>0.85974E+02</wgt>
<wgt id='2401'>0.84089E+02</wgt>
<wgt id='2402'>0.88109E+02</wgt>
<wgt id='2500'>0.82714E+02</wgt>
<wgt id='2501'>0.88904E+02</wgt>
<wgt id='2600'>0.77329E+02</wgt>
<wgt id='2601'>0.77285E+02</wgt>
<wgt id='2602'>0.77214E+02</wgt>
<wgt id='2603'>0.77310E+02</wgt>
<wgt id='2604'>0.77212E+02</wgt>
<wgt id='2605'>0.77203E+02</wgt>
<wgt id='2606'>0.77387E+02</wgt>
<wgt id='2607'>0.77292E+02</wgt>
<wgt id='2608'>0.77434E+02</wgt>
<wgt id='2609'>0.77182E+02</wgt>
<wgt id='2610'>0.77255E+02</wgt>
<wgt id='2611'>0.77260E+02</wgt>
<wgt id='2612'>0.77518E+02</wgt>
<wgt id='2613'>0.77287E+02</wgt>
<wgt id='2614'>0.77239E+02</wgt>
<wgt id='2615'>0.77039E+02</wgt>
<wgt id='2616'>0.77335E+02</wgt>
<wgt id='2617'>0.77000E+02</wgt>
<wgt id='2618'>0.77100E+02</wgt>
<wgt id='2619'>0.77438E+02</wgt>
<wgt id='2620'>0.77220E+02</wgt>
<wgt id='2621'>0.77402E+02</wgt>
<wgt id='2622'>0.77766E+02</wgt>
<wgt id='2623'>0.77311E+02</wgt>
<wgt id='2624'>0.77313E+02</wgt>
<wgt id='2625'>0.77302E+02</wgt>
<wgt id='2626'>0.77320E+02</wgt>
<wgt id='2627'>0.77362E+02</wgt>
<wgt id='2628'>0.77330E+02</wgt>
<wgt id='2629'>0.77390E+02</wgt>
<wgt id='2630'>0.77472E+02</wgt>
<wgt id='2631'>0.77155E+02</wgt>
<wgt id='2632'>0.77266E+02</wgt>
<wgt id='2633'>0.77244E+02</wgt>
<wgt id='2634'>0.77158E+02</wgt>
<wgt id='2635'>0.77220E+02</wgt>
<wgt id='2636'>0.77355E+02</wgt>
<wgt id='2637'>0.77342E+02</wgt>
<wgt id='2638'>0.77307E+02</wgt>
<wgt id='2639'>0.77364E+02</wgt>
<wgt id='2640'>0.77283E+02</wgt>
<wgt id='2641'>0.77272E+02</wgt>
<wgt id='2642'>0.77328E+02</wgt>
<wgt id='2643'>0.77282E+02</wgt>
<wgt id='2644'>0.77336E+02</wgt>
<wgt id='2645'>0.77290E+02</wgt>
<wgt id='2646'>0.77324E+02</wgt>
<wgt id='2647'>0.77333E+02</wgt>
<wgt id='2648'>0.77327E+02</wgt>
<wgt id='2649'>0.77347E+02</wgt>
<wgt id='2650'>0.77356E+02</wgt>
<wgt id='2651'>0.76044E+02</wgt>
<wgt id='2652'>0.78304E+02</wgt>
<wgt id='2700'>0.74936E+02</wgt>
<wgt id='2701'>0.76044E+02</wgt>
<wgt id='2702'>0.76789E+02</wgt>
<wgt id='2703'>0.77755E+02</wgt>
<wgt id='2704'>0.78304E+02</wgt>
<wgt id='2705'>0.79421E+02</wgt>
<wgt id='2800'>0.78462E+02</wgt>
<wgt id='4000'>0.82335E+02</wgt>
<wgt id='4001'>0.82809E+02</wgt>
<wgt id='4002'>0.82280E+02</wgt>
<wgt id='4003'>0.82119E+02</wgt>
<wgt id='4004'>0.82723E+02</wgt>
<wgt id='4005'>0.82827E+02</wgt>
<wgt id='4006'>0.82301E+02</wgt>
<wgt id='4007'>0.83442E+02</wgt>
<wgt id='4008'>0.81336E+02</wgt>
<wgt id='4009'>0.81984E+02</wgt>
<wgt id='4010'>0.82279E+02</wgt>
<wgt id='4011'>0.83358E+02</wgt>
<wgt id='4012'>0.81447E+02</wgt>
<wgt id='4013'>0.83182E+02</wgt>
<wgt id='4014'>0.81625E+02</wgt>
<wgt id='4015'>0.82029E+02</wgt>
<wgt id='4016'>0.83861E+02</wgt>
<wgt id='4017'>0.82316E+02</wgt>
<wgt id='4018'>0.82411E+02</wgt>
<wgt id='4019'>0.82816E+02</wgt>
<wgt id='4020'>0.81662E+02</wgt>
<wgt id='4021'>0.82579E+02</wgt>
<wgt id='4022'>0.81899E+02</wgt>
<wgt id='4023'>0.82970E+02</wgt>
<wgt id='4024'>0.82555E+02</wgt>
<wgt id='4025'>0.82339E+02</wgt>
<wgt id='4026'>0.82625E+02</wgt>
<wgt id='4027'>0.82718E+02</wgt>
<wgt id='4028'>0.82148E+02</wgt>
<wgt id='4029'>0.82975E+02</wgt>
<wgt id='4030'>0.80738E+02</wgt>
<wgt id='4031'>0.81851E+02</wgt>
<wgt id='4032'>0.84464E+02</wgt>
<wgt id='4033'>0.83223E+02</wgt>
<wgt id='4034'>0.81071E+02</wgt>
<wgt id='4035'>0.84238E+02</wgt>
<wgt id='4036'>0.81011E+02</wgt>
<wgt id='4037'>0.85802E+02</wgt>
<wgt id='4038'>0.79972E+02</wgt>
<wgt id='4039'>0.84618E+02</wgt>
<wgt id='4040'>0.80215E+02</wgt>
<wgt id='4041'>0.82725E+02</wgt>
<wgt id='4042'>0.81724E+02</wgt>
<wgt id='4043'>0.81713E+02</wgt>
<wgt id='4044'>0.81198E+02</wgt>
<wgt id='4045'>0.83161E+02</wgt>
<wgt id='4046'>0.81994E+02</wgt>
<wgt id='4047'>0.81866E+02</wgt>
<wgt id='4048'>0.82905E+02</wgt>
<wgt id='4049'>0.82618E+02</wgt>
<wgt id='4050'>0.82167E+02</wgt>
<wgt id='4051'>0.82694E+02</wgt>
<wgt id='4052'>0.82333E+02</wgt>
<wgt id='4053'>0.82295E+02</wgt>
<wgt id='4054'>0.81414E+02</wgt>
<wgt id='4055'>0.83001E+02</wgt>
<wgt id='4056'>0.81820E+02</wgt>
<wgt id='4057'>0.81364E+02</wgt>
<wgt id='4058'>0.82915E+02</wgt>
<wgt id='4100'>0.82432E+02</wgt>
<wgt id='4101'>0.82365E+02</wgt>
<wgt id='4102'>0.82327E+02</wgt>
<wgt id='4103'>0.82332E+02</wgt>
<wgt id='4200'>0.78737E+02</wgt>
<wgt id='4201'>0.78681E+02</wgt>
<wgt id='4202'>0.79099E+02</wgt>
<wgt id='4203'>0.77896E+02</wgt>
<wgt id='4204'>0.79358E+02</wgt>
<wgt id='4205'>0.78545E+02</wgt>
<wgt id='4206'>0.79316E+02</wgt>
<wgt id='4207'>0.79229E+02</wgt>
<wgt id='4208'>0.78185E+02</wgt>
<wgt id='4209'>0.78744E+02</wgt>
<wgt id='4210'>0.78853E+02</wgt>
<wgt id='4211'>0.79882E+02</wgt>
<wgt id='4212'>0.77913E+02</wgt>
<wgt id='4213'>0.79153E+02</wgt>
<wgt id='4214'>0.78076E+02</wgt>
<wgt id='4215'>0.78721E+02</wgt>
<wgt id='4216'>0.79018E+02</wgt>
<wgt id='4217'>0.78599E+02</wgt>
<wgt id='4218'>0.78871E+02</wgt>
<wgt id='4219'>0.77379E+02</wgt>
<wgt id='4220'>0.80127E+02</wgt>
<wgt id='4221'>0.78232E+02</wgt>
<wgt id='4222'>0.79855E+02</wgt>
<wgt id='4223'>0.77730E+02</wgt>
<wgt id='4224'>0.78220E+02</wgt>
<wgt id='4225'>0.77365E+02</wgt>
<wgt id='4226'>0.80493E+02</wgt>
<wgt id='4227'>0.80042E+02</wgt>
<wgt id='4228'>0.77655E+02</wgt>
<wgt id='4229'>0.76374E+02</wgt>
<wgt id='4230'>0.80422E+02</wgt>
<wgt id='4231'>0.79001E+02</wgt>
<wgt id='4232'>0.78191E+02</wgt>
<wgt id='4233'>0.78693E+02</wgt>
<wgt id='4234'>0.77994E+02</wgt>
<wgt id='4235'>0.79406E+02</wgt>
<wgt id='4236'>0.78169E+02</wgt>
<wgt id='4237'>0.79923E+02</wgt>
<wgt id='4238'>0.76726E+02</wgt>
<wgt id='4239'>0.77814E+02</wgt>
<wgt id='4240'>0.78211E+02</wgt>
<wgt id='4241'>0.78795E+02</wgt>
<wgt id='4242'>0.78634E+02</wgt>
<wgt id='4243'>0.78667E+02</wgt>
<wgt id='4244'>0.79410E+02</wgt>
<wgt id='4245'>0.78636E+02</wgt>
<wgt id='4246'>0.78419E+02</wgt>
<wgt id='4247'>0.78457E+02</wgt>
<wgt id='4248'>0.78663E+02</wgt>
<wgt id='4249'>0.80764E+02</wgt>
<wgt id='4250'>0.76408E+02</wgt>
<wgt id='4251'>0.79246E+02</wgt>
<wgt id='4252'>0.78323E+02</wgt>
<wgt id='4253'>0.78706E+02</wgt>
<wgt id='4254'>0.78350E+02</wgt>
<wgt id='4255'>0.80237E+02</wgt>
<wgt id='4256'>0.77902E+02</wgt>
<wgt id='4257'>0.77157E+02</wgt>
<wgt id='4258'>0.79176E+02</wgt>
<wgt id='4300'>0.81455E+02</wgt>
<wgt id='4301'>0.80817E+02</wgt>
<wgt id='5000'>0.81972E+02</wgt>
<wgt id='5001'>0.82040E+02</wgt>
<wgt id='5002'>0.81884E+02</wgt>
<wgt id='5003'>0.81992E+02</wgt>
<wgt id='5004'>0.81953E+02</wgt>
<wgt id='5005'>0.82007E+02</wgt>
<wgt id='5006'>0.81914E+02</wgt>
<wgt id='5007'>0.82078E+02</wgt>
<wgt id='5008'>0.81886E+02</wgt>
<wgt id='5009'>0.82125E+02</wgt>
<wgt id='5010'>0.81814E+02</wgt>
<wgt id='5011'>0.82232E+02</wgt>
<wgt id='5012'>0.81721E+02</wgt>
<wgt id='5013'>0.82116E+02</wgt>
<wgt id='5014'>0.81870E+02</wgt>
<wgt id='5015'>0.81461E+02</wgt>
<wgt id='5016'>0.81461E+02</wgt>
<wgt id='5017'>0.82497E+02</wgt>
<wgt id='5018'>0.81617E+02</wgt>
<wgt id='5019'>0.82247E+02</wgt>
<wgt id='5020'>0.81593E+02</wgt>
<wgt id='5021'>0.82059E+02</wgt>
<wgt id='5022'>0.81838E+02</wgt>
<wgt id='5023'>0.81922E+02</wgt>
<wgt id='5024'>0.82090E+02</wgt>
<wgt id='5025'>0.81803E+02</wgt>
<wgt id='5026'>0.82157E+02</wgt>
<wgt id='5027'>0.82057E+02</wgt>
<wgt id='5028'>0.81743E+02</wgt>
<wgt id='5029'>0.83481E+02</wgt>
<wgt id='5030'>0.81127E+02</wgt>
<wgt id='5031'>0.81128E+02</wgt>
<wgt id='5032'>0.84580E+02</wgt>
<wgt id='5033'>0.81907E+02</wgt>
<wgt id='5034'>0.82042E+02</wgt>
<wgt id='5035'>0.81992E+02</wgt>
<wgt id='5036'>0.81946E+02</wgt>
<wgt id='5037'>0.81600E+02</wgt>
<wgt id='5038'>0.82181E+02</wgt>
<wgt id='5039'>0.82212E+02</wgt>
<wgt id='5040'>0.81369E+02</wgt>
<wgt id='5041'>0.81731E+02</wgt>
<wgt id='5042'>0.82165E+02</wgt>
<wgt id='5043'>0.82320E+02</wgt>
<wgt id='5044'>0.81707E+02</wgt>
<wgt id='5045'>0.81796E+02</wgt>
<wgt id='5046'>0.82642E+02</wgt>
<wgt id='5047'>0.82074E+02</wgt>
<wgt id='5048'>0.81522E+02</wgt>
<wgt id='5049'>0.81863E+02</wgt>
<wgt id='5050'>0.82233E+02</wgt>
<wgt id='5051'>0.82233E+02</wgt>
<wgt id='5052'>0.81804E+02</wgt>
<wgt id='5053'>0.82070E+02</wgt>
<wgt id='5054'>0.82335E+02</wgt>
<wgt id='5055'>0.82013E+02</wgt>
<wgt id='5056'>0.82026E+02</wgt>
<wgt id='5057'>0.81570E+02</wgt>
<wgt id='5058'>0.82257E+02</wgt>
<wgt id='5059'>0.81832E+02</wgt>
<wgt id='5060'>0.82018E+02</wgt>
<wgt id='5061'>0.82388E+02</wgt>
<wgt id='5062'>0.82198E+02</wgt>
<wgt id='5063'>0.82436E+02</wgt>
<wgt id='5064'>0.81945E+02</wgt>
<wgt id='5100'>0.81972E+02</wgt>
<wgt id='5101'>0.81963E+02</wgt>
<wgt id='6000'>0.80635E+02</wgt>
<wgt id='6001'>0.80112E+02</wgt>
<wgt id='6002'>0.79864E+02</wgt>
<wgt id='6003'>0.80569E+02</wgt>
<wgt id='6004'>0.81052E+02</wgt>
<wgt id='6005'>0.80259E+02</wgt>
<wgt id='6006'>0.80542E+02</wgt>
<wgt id='6007'>0.80165E+02</wgt>
<wgt id='6008'>0.81436E+02</wgt>
<wgt id='6009'>0.80231E+02</wgt>
<wgt id='6010'>0.79778E+02</wgt>
<wgt id='6011'>0.80487E+02</wgt>
<wgt id='6012'>0.80662E+02</wgt>
<wgt id='6013'>0.80243E+02</wgt>
<wgt id='6014'>0.80288E+02</wgt>
<wgt id='6015'>0.79652E+02</wgt>
<wgt id='6016'>0.81084E+02</wgt>
<wgt id='6017'>0.80178E+02</wgt>
<wgt id='6018'>0.79940E+02</wgt>
<wgt id='6019'>0.80653E+02</wgt>
<wgt id='6020'>0.80743E+02</wgt>
<wgt id='6021'>0.80506E+02</wgt>
<wgt id='6022'>0.80748E+02</wgt>
<wgt id='6023'>0.80548E+02</wgt>
<wgt id='6024'>0.80712E+02</wgt>
<wgt id='6025'>0.81110E+02</wgt>
<wgt id='6026'>0.80591E+02</wgt>
<wgt id='6027'>0.80648E+02</wgt>
<wgt id='6028'>0.80138E+02</wgt>
<wgt id='6029'>0.80233E+02</wgt>
<wgt id='6030'>0.80223E+02</wgt>
<wgt id='6031'>0.80472E+02</wgt>
<wgt id='6032'>0.80473E+02</wgt>
<wgt id='6033'>0.80483E+02</wgt>
<wgt id='6034'>0.80978E+02</wgt>
<wgt id='6035'>0.80746E+02</wgt>
<wgt id='6036'>0.81800E+02</wgt>
<wgt id='6037'>0.80647E+02</wgt>
<wgt id='6038'>0.80603E+02</wgt>
<wgt id='6039'>0.80917E+02</wgt>
<wgt id='6040'>0.80659E+02</wgt>
<wgt id='6041'>0.79237E+02</wgt>
<wgt id='6042'>0.81250E+02</wgt>
<wgt id='7000'>0.80052E+02</wgt>
<wgt id='7001'>0.79379E+02</wgt>
<wgt id='7002'>0.79587E+02</wgt>
<wgt id='7003'>0.79409E+02</wgt>
<wgt id='7004'>0.79558E+02</wgt>
<wgt id='7005'>0.79581E+02</wgt>
<wgt id='7006'>0.79384E+02</wgt>
<wgt id='7007'>0.80099E+02</wgt>
<wgt id='7008'>0.78884E+02</wgt>
<wgt id='7009'>0.78845E+02</wgt>
<wgt id='7010'>0.80139E+02</wgt>
<wgt id='7011'>0.79872E+02</wgt>
<wgt id='7012'>0.79100E+02</wgt>
<wgt id='7013'>0.79319E+02</wgt>
<wgt id='7014'>0.79636E+02</wgt>
<wgt id='7015'>0.79590E+02</wgt>
<wgt id='7016'>0.79104E+02</wgt>
<wgt id='7017'>0.79374E+02</wgt>
<wgt id='7018'>0.79600E+02</wgt>
<wgt id='7019'>0.79450E+02</wgt>
<wgt id='7020'>0.79526E+02</wgt>
<wgt id='7021'>0.80776E+02</wgt>
<wgt id='7022'>0.78238E+02</wgt>
<wgt id='7023'>0.78383E+02</wgt>
<wgt id='7024'>0.80653E+02</wgt>
<wgt id='7025'>0.77528E+02</wgt>
<wgt id='7026'>0.81471E+02</wgt>
<wgt id='7027'>0.78618E+02</wgt>
<wgt id='7028'>0.80399E+02</wgt>
<wgt id='8000'>0.80697E+02</wgt>
<wgt id='8001'>0.80694E+02</wgt>
<wgt id='8002'>0.80724E+02</wgt>
<wgt id='8003'>0.80698E+02</wgt>
<wgt id='8004'>0.80695E+02</wgt>
<wgt id='8005'>0.80558E+02</wgt>
<wgt id='8006'>0.80861E+02</wgt>
<wgt id='8007'>0.81017E+02</wgt>
<wgt id='8008'>0.80946E+02</wgt>
<wgt id='8009'>0.81132E+02</wgt>
<wgt id='8010'>0.80547E+02</wgt>
<wgt id='8011'>0.80727E+02</wgt>
<wgt id='8012'>0.80226E+02</wgt>
<wgt id='8013'>0.80438E+02</wgt>
<wgt id='8014'>0.81063E+02</wgt>
<wgt id='8015'>0.80618E+02</wgt>
<wgt id='8016'>0.80847E+02</wgt>
<wgt id='8017'>0.80832E+02</wgt>
<wgt id='8018'>0.81102E+02</wgt>
<wgt id='8019'>0.80610E+02</wgt>
<wgt id='8020'>0.80957E+02</wgt>
<wgt id='8021'>0.80504E+02</wgt>
<wgt id='8022'>0.81196E+02</wgt>
<wgt id='8023'>0.80345E+02</wgt>
<wgt id='8024'>0.79969E+02</wgt>
<wgt id='8025'>0.80257E+02</wgt>
<wgt id='8026'>0.80745E+02</wgt>
<wgt id='8027'>0.80910E+02</wgt>
<wgt id='8028'>0.80721E+02</wgt>
<wgt id='8029'>0.81676E+02</wgt>
<wgt id='3000'>0.81104E+02</wgt>
<wgt id='3001'>0.82263E+02</wgt>
<wgt id='3002'>0.80077E+02</wgt>
<wgt id='3003'>0.82250E+02</wgt>
<wgt id='3004'>0.82132E+02</wgt>
<wgt id='3005'>0.82348E+02</wgt>
<wgt id='3006'>0.83203E+02</wgt>
<wgt id='3007'>0.79142E+02</wgt>
<wgt id='3008'>0.78749E+02</wgt>
<wgt id='3009'>0.79244E+02</wgt>
<wgt id='3010'>0.83970E+02</wgt>
<wgt id='3011'>0.82674E+02</wgt>
<wgt id='3012'>0.81940E+02</wgt>
<wgt id='3013'>0.79157E+02</wgt>
<wgt id='3014'>0.81744E+02</wgt>
<wgt id='3015'>0.77278E+02</wgt>
<wgt id='3016'>0.81176E+02</wgt>
<wgt id='3017'>0.82213E+02</wgt>
<wgt id='3018'>0.80610E+02</wgt>
<wgt id='3019'>0.79292E+02</wgt>
<wgt id='3020'>0.79289E+02</wgt>
<wgt id='3021'>0.77619E+02</wgt>
<wgt id='3022'>0.78252E+02</wgt>
<wgt id='3023'>0.79640E+02</wgt>
<wgt id='3024'>0.81206E+02</wgt>
<wgt id='3025'>0.78884E+02</wgt>
<wgt id='3026'>0.78374E+02</wgt>
<wgt id='3027'>0.80180E+02</wgt>
<wgt id='3028'>0.79967E+02</wgt>
<wgt id='3029'>0.82354E+02</wgt>
<wgt id='3030'>0.81149E+02</wgt>
<wgt id='3031'>0.80881E+02</wgt>
<wgt id='3032'>0.80565E+02</wgt>
<wgt id='3033'>0.80360E+02</wgt>
<wgt id='3034'>0.84140E+02</wgt>
<wgt id='3035'>0.79878E+02</wgt>
<wgt id='3036'>0.80693E+02</wgt>
<wgt id='3037'>0.78642E+02</wgt>
<wgt id='3038'>0.81379E+02</wgt>
<wgt id='3039'>0.78606E+02</wgt>
<wgt id='3040'>0.81175E+02</wgt>
<wgt id='3041'>0.80960E+02</wgt>
<wgt id='3042'>0.83242E+02</wgt>
<wgt id='3043'>0.82690E+02</wgt>
<wgt id='3044'>0.83477E+02</wgt>
<wgt id='3045'>0.81545E+02</wgt>
<wgt id='3046'>0.81948E+02</wgt>
<wgt id='3047'>0.83264E+02</wgt>
<wgt id='3048'>0.83234E+02</wgt>
<wgt id='3049'>0.79629E+02</wgt>
<wgt id='3050'>0.81266E+02</wgt>
<wgt id='3051'>0.79758E+02</wgt>
<wgt id='3052'>0.79463E+02</wgt>
<wgt id='3053'>0.81561E+02</wgt>
<wgt id='3054'>0.80534E+02</wgt>
<wgt id='3055'>0.82101E+02</wgt>
<wgt id='3056'>0.81019E+02</wgt>
<wgt id='3057'>0.78927E+02</wgt>
<wgt id='3058'>0.81754E+02</wgt>
<wgt id='3059'>0.79351E+02</wgt>
<wgt id='3060'>0.80158E+02</wgt>
<wgt id='3061'>0.80075E+02</wgt>
<wgt id='3062'>0.81758E+02</wgt>
<wgt id='3063'>0.80548E+02</wgt>
<wgt id='3064'>0.83671E+02</wgt>
<wgt id='3065'>0.79225E+02</wgt>
<wgt id='3066'>0.83439E+02</wgt>
<wgt id='3067'>0.80755E+02</wgt>
<wgt id='3068'>0.80234E+02</wgt>
<wgt id='3069'>0.81661E+02</wgt>
<wgt id='3070'>0.82554E+02</wgt>
<wgt id='3071'>0.80667E+02</wgt>
<wgt id='3072'>0.79996E+02</wgt>
<wgt id='3073'>0.81643E+02</wgt>
<wgt id='3074'>0.78943E+02</wgt>
<wgt id='3075'>0.81817E+02</wgt>
<wgt id='3076'>0.83081E+02</wgt>
<wgt id='3077'>0.82268E+02</wgt>
<wgt id='3078'>0.78406E+02</wgt>
<wgt id='3079'>0.80340E+02</wgt>
<wgt id='3080'>0.85406E+02</wgt>
<wgt id='3081'>0.82599E+02</wgt>
<wgt id='3082'>0.81176E+02</wgt>
<wgt id='3083'>0.82888E+02</wgt>
<wgt id='3084'>0.80014E+02</wgt>
<wgt id='3085'>0.79865E+02</wgt>
<wgt id='3086'>0.84576E+02</wgt>
<wgt id='3087'>0.79211E+02</wgt>
<wgt id='3088'>0.83808E+02</wgt>
<wgt id='3089'>0.85550E+02</wgt>
<wgt id='3090'>0.82907E+02</wgt>
<wgt id='3091'>0.81014E+02</wgt>
<wgt id='3092'>0.81618E+02</wgt>
<wgt id='3093'>0.81142E+02</wgt>
<wgt id='3094'>0.82655E+02</wgt>
<wgt id='3095'>0.80509E+02</wgt>
<wgt id='3096'>0.79918E+02</wgt>
<wgt id='3097'>0.85702E+02</wgt>
<wgt id='3098'>0.81904E+02</wgt>
<wgt id='3099'>0.79041E+02</wgt>
<wgt id='3100'>0.79308E+02</wgt>
<wgt id='3200'>0.77466E+02</wgt>
<wgt id='3201'>0.78024E+02</wgt>
<wgt id='3202'>0.74883E+02</wgt>
<wgt id='3203'>0.78531E+02</wgt>
<wgt id='3204'>0.76505E+02</wgt>
<wgt id='3205'>0.78306E+02</wgt>
<wgt id='3206'>0.79067E+02</wgt>
<wgt id='3207'>0.78878E+02</wgt>
<wgt id='3208'>0.78015E+02</wgt>
<wgt id='3209'>0.77141E+02</wgt>
<wgt id='3210'>0.77637E+02</wgt>
<wgt id='3211'>0.77626E+02</wgt>
<wgt id='3212'>0.76844E+02</wgt>
<wgt id='3213'>0.78747E+02</wgt>
<wgt id='3214'>0.77719E+02</wgt>
<wgt id='3215'>0.77819E+02</wgt>
<wgt id='3216'>0.79241E+02</wgt>
<wgt id='3217'>0.78152E+02</wgt>
<wgt id='3218'>0.78079E+02</wgt>
<wgt id='3219'>0.76442E+02</wgt>
<wgt id='3220'>0.76790E+02</wgt>
<wgt id='3221'>0.77852E+02</wgt>
<wgt id='3222'>0.79020E+02</wgt>
<wgt id='3223'>0.77781E+02</wgt>
<wgt id='3224'>0.77583E+02</wgt>
<wgt id='3225'>0.78821E+02</wgt>
<wgt id='3226'>0.77376E+02</wgt>
<wgt id='3227'>0.76716E+02</wgt>
<wgt id='3228'>0.76900E+02</wgt>
<wgt id='3229'>0.78289E+02</wgt>
<wgt id='3230'>0.78133E+02</wgt>
<wgt id='3231'>0.77707E+02</wgt>
<wgt id='3232'>0.77564E+02</wgt>
<wgt id='3233'>0.78963E+02</wgt>
<wgt id='3234'>0.75969E+02</wgt>
<wgt id='3235'>0.77302E+02</wgt>
<wgt id='3236'>0.76805E+02</wgt>
<wgt id='3237'>0.77024E+02</wgt>
<wgt id='3238'>0.76362E+02</wgt>
<wgt id='3239'>0.76403E+02</wgt>
<wgt id='3240'>0.75485E+02</wgt>
<wgt id='3241'>0.78230E+02</wgt>
<wgt id='3242'>0.77609E+02</wgt>
<wgt id='3243'>0.77098E+02</wgt>
<wgt id='3244'>0.77642E+02</wgt>
<wgt id='3245'>0.77395E+02</wgt>
<wgt id='3246'>0.75670E+02</wgt>
<wgt id='3247'>0.77274E+02</wgt>
<wgt id='3248'>0.77483E+02</wgt>
<wgt id='3249'>0.75686E+02</wgt>
<wgt id='3250'>0.77053E+02</wgt>
<wgt id='3251'>0.77149E+02</wgt>
<wgt id='3252'>0.78455E+02</wgt>
<wgt id='3253'>0.76937E+02</wgt>
<wgt id='3254'>0.76340E+02</wgt>
<wgt id='3255'>0.76661E+02</wgt>
<wgt id='3256'>0.78124E+02</wgt>
<wgt id='3257'>0.76855E+02</wgt>
<wgt id='3258'>0.76983E+02</wgt>
<wgt id='3259'>0.77176E+02</wgt>
<wgt id='3260'>0.78308E+02</wgt>
<wgt id='3261'>0.77938E+02</wgt>
<wgt id='3262'>0.78026E+02</wgt>
<wgt id='3263'>0.79182E+02</wgt>
<wgt id='3264'>0.76961E+02</wgt>
<wgt id='3265'>0.77107E+02</wgt>
<wgt id='3266'>0.77024E+02</wgt>
<wgt id='3267'>0.77030E+02</wgt>
<wgt id='3268'>0.76622E+02</wgt>
<wgt id='3269'>0.77662E+02</wgt>
<wgt id='3270'>0.78532E+02</wgt>
<wgt id='3271'>0.77821E+02</wgt>
<wgt id='3272'>0.77827E+02</wgt>
<wgt id='3273'>0.77375E+02</wgt>
<wgt id='3274'>0.76628E+02</wgt>
<wgt id='3275'>0.78326E+02</wgt>
<wgt id='3276'>0.76077E+02</wgt>
<wgt id='3277'>0.76863E+02</wgt>
<wgt id='3278'>0.77910E+02</wgt>
<wgt id='3279'>0.78556E+02</wgt>
<wgt id='3280'>0.77433E+02</wgt>
<wgt id='3281'>0.78412E+02</wgt>
<wgt id='3282'>0.77716E+02</wgt>
<wgt id='3283'>0.78123E+02</wgt>
<wgt id='3284'>0.77368E+02</wgt>
<wgt id='3285'>0.77207E+02</wgt>
<wgt id='3286'>0.75986E+02</wgt>
<wgt id='3287'>0.78802E+02</wgt>
<wgt id='3288'>0.76853E+02</wgt>
<wgt id='3289'>0.78235E+02</wgt>
<wgt id='3290'>0.77580E+02</wgt>
<wgt id='3291'>0.76041E+02</wgt>
<wgt id='3292'>0.76968E+02</wgt>
<wgt id='3293'>0.77627E+02</wgt>
<wgt id='3294'>0.76402E+02</wgt>
<wgt id='3295'>0.77114E+02</wgt>
<wgt id='3296'>0.78992E+02</wgt>
<wgt id='3297'>0.76970E+02</wgt>
<wgt id='3298'>0.76300E+02</wgt>
<wgt id='3299'>0.77784E+02</wgt>
<wgt id='3300'>0.78735E+02</wgt>
<wgt id='3301'>0.76044E+02</wgt>
<wgt id='3302'>0.78304E+02</wgt>
<wgt id='3400'>0.77712E+02</wgt>
<wgt id='3401'>0.78005E+02</wgt>
<wgt id='3402'>0.75985E+02</wgt>
<wgt id='3403'>0.78113E+02</wgt>
<wgt id='3404'>0.78803E+02</wgt>
<wgt id='3405'>0.78725E+02</wgt>
<wgt id='3406'>0.78369E+02</wgt>
<wgt id='3407'>0.77326E+02</wgt>
<wgt id='3408'>0.78507E+02</wgt>
<wgt id='3409'>0.78869E+02</wgt>
<wgt id='3410'>0.79080E+02</wgt>
<wgt id='3411'>0.78389E+02</wgt>
<wgt id='3412'>0.78466E+02</wgt>
<wgt id='3413'>0.77580E+02</wgt>
<wgt id='3414'>0.77337E+02</wgt>
<wgt id='3415'>0.78019E+02</wgt>
<wgt id='3416'>0.77526E+02</wgt>
<wgt id='3417'>0.77131E+02</wgt>
<wgt id='3418'>0.77117E+02</wgt>
<wgt id='3419'>0.76607E+02</wgt>
<wgt id='3420'>0.77663E+02</wgt>
<wgt id='3421'>0.78046E+02</wgt>
<wgt id='3422'>0.76991E+02</wgt>
<wgt id='3423'>0.78966E+02</wgt>
<wgt id='3424'>0.77726E+02</wgt>
<wgt id='3425'>0.77583E+02</wgt>
<wgt id='3426'>0.76604E+02</wgt>
<wgt id='3427'>0.77249E+02</wgt>
<wgt id='3428'>0.77804E+02</wgt>
<wgt id='3429'>0.76718E+02</wgt>
<wgt id='3430'>0.77117E+02</wgt>
<wgt id='3431'>0.77678E+02</wgt>
<wgt id='3432'>0.77630E+02</wgt>
<wgt id='3433'>0.77234E+02</wgt>
<wgt id='3434'>0.78960E+02</wgt>
<wgt id='3435'>0.79288E+02</wgt>
<wgt id='3436'>0.77313E+02</wgt>
<wgt id='3437'>0.77722E+02</wgt>
<wgt id='3438'>0.77101E+02</wgt>
<wgt id='3439'>0.76847E+02</wgt>
<wgt id='3440'>0.78392E+02</wgt>
<wgt id='3441'>0.78148E+02</wgt>
<wgt id='3442'>0.77002E+02</wgt>
<wgt id='3443'>0.78408E+02</wgt>
<wgt id='3444'>0.77231E+02</wgt>
<wgt id='3445'>0.76924E+02</wgt>
<wgt id='3446'>0.79293E+02</wgt>
<wgt id='3447'>0.77814E+02</wgt>
<wgt id='3448'>0.78765E+02</wgt>
<wgt id='3449'>0.79120E+02</wgt>
<wgt id='3450'>0.77445E+02</wgt>
<wgt id='3451'>0.77903E+02</wgt>
<wgt id='3452'>0.77599E+02</wgt>
<wgt id='3453'>0.75654E+02</wgt>
<wgt id='3454'>0.77631E+02</wgt>
<wgt id='3455'>0.78794E+02</wgt>
<wgt id='3456'>0.77846E+02</wgt>
<wgt id='3457'>0.79256E+02</wgt>
<wgt id='3458'>0.77700E+02</wgt>
<wgt id='3459'>0.78118E+02</wgt>
<wgt id='3460'>0.77850E+02</wgt>
<wgt id='3461'>0.77019E+02</wgt>
<wgt id='3462'>0.78876E+02</wgt>
<wgt id='3463'>0.77192E+02</wgt>
<wgt id='3464'>0.77514E+02</wgt>
<wgt id='3465'>0.79016E+02</wgt>
<wgt id='3466'>0.78912E+02</wgt>
<wgt id='3467'>0.77306E+02</wgt>
<wgt id='3468'>0.78156E+02</wgt>
<wgt id='3469'>0.77273E+02</wgt>
<wgt id='3470'>0.76575E+02</wgt>
<wgt id='3471'>0.76618E+02</wgt>
<wgt id='3472'>0.75825E+02</wgt>
<wgt id='3473'>0.79181E+02</wgt>
<wgt id='3474'>0.77202E+02</wgt>
<wgt id='3475'>0.78091E+02</wgt>
<wgt id='3476'>0.76491E+02</wgt>
<wgt id='3477'>0.77145E+02</wgt>
<wgt id='3478'>0.79801E+02</wgt>
<wgt id='3479'>0.76926E+02</wgt>
<wgt id='3480'>0.77409E+02</wgt>
<wgt id='3481'>0.77764E+02</wgt>
<wgt id='3482'>0.78822E+02</wgt>
<wgt id='3483'>0.77579E+02</wgt>
<wgt id='3484'>0.77571E+02</wgt>
<wgt id='3485'>0.77156E+02</wgt>
<wgt id='3486'>0.75781E+02</wgt>
<wgt id='3487'>0.77696E+02</wgt>
<wgt id='3488'>0.76877E+02</wgt>
<wgt id='3489'>0.76560E+02</wgt>
<wgt id='3490'>0.79521E+02</wgt>
<wgt id='3491'>0.77743E+02</wgt>
<wgt id='3492'>0.77549E+02</wgt>
<wgt id='3493'>0.78050E+02</wgt>
<wgt id='3494'>0.74853E+02</wgt>
<wgt id='3495'>0.78958E+02</wgt>
<wgt id='3496'>0.76646E+02</wgt>
<wgt id='3497'>0.77540E+02</wgt>
<wgt id='3498'>0.78035E+02</wgt>
<wgt id='3499'>0.76632E+02</wgt>
<wgt id='3500'>0.78416E+02</wgt>
</rwgt>
</event>
<event>
     13 322200  8.11039E+01  1.60722E+01 -1.00000E+00  1.71408E-01
      21    -1     0     0   503   504  0.000000000E+00  0.000000000E+00  6.763806997E+02  6.763806997E+02  0.000000000E+00  0.00000E+00  9.000E+00
      21    -1     0     0   502   503  0.000000000E+00  0.000000000E+00 -3.634702164E+02  3.634702164E+02  0.000000000E+00  0.00000E+00  9.000E+00
       6     2     1     2   502     0 -6.153088791E+00 -1.465860329E+02 -2.836333950E+02  3.630133668E+02  1.726426256E+02  0.00000E+00  9.000E+00
      -6     2     1     2     0   505 -2.053680720E+00  1.604050495E+02  3.062777315E+02  3.861267784E+02  1.719123111E+02  0.00000E+00  9.000E+00
      21     1     1     2   505   504  8.206769510E+00 -1.381901664E+01  2.902661469E+02  2.907107709E+02  3.814697266E-06  0.00000E+00  9.000E+00
      24     2     3     3     0     0  3.094398389E+01 -5.460631572E+01 -5.991348948E+01  1.182427376E+02  8.032645223E+01  0.00000E+00  9.000E+00
       5     1     3     3   502     0 -3.709707268E+01 -9.197971716E+01 -2.237199055E+02  2.447706291E+02  5.060000000E+00  0.00000E+00 -1.000E+00
     -24     2     4     4     0     0 -2.459072751E+00  1.845703137E+01  6.206420429E+01  1.036108415E+02  8.084882167E+01  0.00000E+00  9.000E+00
      -5     1     4     4     0   505  4.053920317E-01  1.419480181E+02  2.442135272E+02  2.825159370E+02  5.060000000E+00  0.00000E+00  1.000E+00
     -13     1     6     6     0     0 -1.095800728E+01 -1.642561471E+01  1.464298657E+01  2.458265589E+01  1.057000000E-01  0.00000E+00  1.000E+00
      14     1     6     6     0     0  4.190199117E+01 -3.818070100E+01 -7.455647605E+01  9.366008175E+01  0.000000000E+00  0.00000E+00 -1.000E+00
      11     1     8     8     0     0  3.115312044E+01  1.674433477E+01  2.827427176E+00  3.548075541E+01  5.100000000E-04  0.00000E+00 -1.000E+00
     -12     1     8     8     0     0 -3.361219319E+01  1.712696607E+00  5.923677712E+01  6.813008604E+01  0.000000000E+00  0.00000E+00  1.000E+00
#rwgt            1           1   896.94913121211482               10       11008           0
<rwgt>
<wgt id='1001'>0.81104E+02</wgt>
<wgt id='1002'>0.95700E+02</wgt>
<wgt id='1003'>0.64277E+02</wgt>
<wgt id='1004'>0.74731E+02</wgt>
<wgt id='1005'>0.84950E+02</wgt>
<wgt id='1006'>0.62939E+02</wgt>
<wgt id='1007'>0.86902E+02</wgt>
<wgt id='1008'>0.10811E+03</wgt>
<wgt id='1009'>0.62476E+02</wgt>
<wgt id='2000'>0.81104E+02</wgt>
<wgt id='2001'>0.81100E+02</wgt>
<wgt id='2002'>0.80923E+02</wgt>
<wgt id='2003'>0.81174E+02</wgt>
<wgt id='2004'>0.81245E+02</wgt>
<wgt id='2005'>0.81060E+02</wgt>
<wgt id='2006'>0.81219E+02</wgt>
<wgt id='2007'>0.80985E+02</wgt>
<wgt id='2008'>0.81200E+02</wgt>
<wgt id='2009'>0.81013E+02</wgt>
<wgt id='2010'>0.81095E+02</wgt>
<wgt id='2011'>0.81190E+02</wgt>
<wgt id='2012'>0.81029E+02</wgt>
<wgt id='2013'>0.81335E+02</wgt>
<wgt id='2014'>0.81480E+02</wgt>
<wgt id='2015'>0.81354E+02</wgt>
<wgt id='2016'>0.81236E+02</wgt>
<wgt id='2017'>0.81409E+02</wgt>
<wgt id='2018'>0.80658E+02</wgt>
<wgt id='2019'>0.81004E+02</wgt>
<wgt id='2020'>0.81089E+02</wgt>
<wgt id='2021'>0.80716E+02</wgt>
<wgt id='2022'>0.81113E+02</wgt>
<wgt id='2023'>0.81017E+02</wgt>
<wgt id='2024'>0.81025E+02</wgt>
<wgt id='2025'>0.81044E+02</wgt>
<wgt id='2026'>0.81023E+02</wgt>
<wgt id='2027'>0.80703E+02</wgt>
<wgt id='2028'>0.81171E+02</wgt>
<wgt id='2029'>0.80643E+02</wgt>
<wgt id='2030'>0.81076E+02</wgt>
<wgt id='2031'>0.80778E+02</wgt>
<wgt id='2032'>0.81196E+02</wgt>
<wgt id='2033'>0.80992E+02</wgt>
<wgt id='2034'>0.80955E+02</wgt>
<wgt id='2035'>0.81090E+02</wgt>
<wgt id='2036'>0.81333E+02</wgt>
<wgt id='2037'>0.81086E+02</wgt>
<wgt id='2038'>0.81018E+02</wgt>
<wgt id='2039'>0.81144E+02</wgt>
<wgt id='2040'>0.81007E+02</wgt>
<wgt id='2041'>0.81095E+02</wgt>
<wgt id='2042'>0.81137E+02</wgt>
<wgt id='2043'>0.81064E+02</wgt>
<wgt id='2044'>0.81191E+02</wgt>
<wgt id='2045'>0.81108E+02</wgt>
<wgt id='2046'>0.81106E+02</wgt>
<wgt id='2047'>0.81080E+02</wgt>
<wgt id='2048'>0.81055E+02</wgt>
<wgt id='2049'>0.81027E+02</wgt>
<wgt id='2050'>0.81063E+02</wgt>
<wgt id='2051'>0.81110E+02</wgt>
<wgt id='2052'>0.81196E+02</wgt>
<wgt id='2053'>0.81094E+02</wgt>
<wgt id='2054'>0.81095E+02</wgt>
<wgt id='2055'>0.81116E+02</wgt>
<wgt id='2056'>0.81049E+02</wgt>
<wgt id='2057'>0.81132E+02</wgt>
<wgt id='2058'>0.81124E+02</wgt>
<wgt id='2059'>0.81106E+02</wgt>
<wgt id='2060'>0.81106E+02</wgt>
<wgt id='2061'>0.81089E+02</wgt>
<wgt id='2062'>0.81177E+02</wgt>
<wgt id='2063'>0.81131E+02</wgt>
<wgt id='2064'>0.81112E+02</wgt>
<wgt id='2065'>0.81190E+02</wgt>
<wgt id='2066'>0.81097E+02</wgt>
<wgt id='2067'>0.81128E+02</wgt>
<wgt id='2068'>0.81123E+02</wgt>
<wgt id='2069'>0.81101E+02</wgt>
<wgt id='2070'>0.81117E+02</wgt>
<wgt id='2071'>0.81100E+02</wgt>
<wgt id='2072'>0.81108E+02</wgt>
<wgt id='2073'>0.81123E+02</wgt>
<wgt id='2074'>0.81081E+02</wgt>
<wgt id='2075'>0.81087E+02</wgt>
<wgt id='2076'>0.81089E+02</wgt>
<wgt id='2077'>0.81149E+02</wgt>
<wgt id='2078'>0.81119E+02</wgt>
<wgt id='2079'>0.81081E+02</wgt>
<wgt id='2080'>0.81114E+02</wgt>
<wgt id='2081'>0.81097E+02</wgt>
<wgt id='2082'>0.81111E+02</wgt>
<wgt id='2083'>0.81145E+02</wgt>
<wgt id='2084'>0.81108E+02</wgt>
<wgt id='2085'>0.81105E+02</wgt>
<wgt id='2086'>0.81096E+02</wgt>
<wgt id='2087'>0.81109E+02</wgt>
<wgt id='2088'>0.81093E+02</wgt>
<wgt id='2089'>0.81091E+02</wgt>
<wgt id='2090'>0.81121E+02</wgt>
<wgt id='2091'>0.81100E+02</wgt>
<wgt id='2092'>0.81130E+02</wgt>
<wgt id='2093'>0.81086E+02</wgt>
<wgt id='2094'>0.81114E+02</wgt>
<wgt id='2095'>0.81119E+02</wgt>
<wgt id='2096'>0.81090E+02</wgt>
<wgt id='2097'>0.81116E+02</wgt>
<wgt id='2098'>0.81099E+02</wgt>
<wgt id='2099'>0.81117E+02</wgt>
<wgt id='2100'>0.81104E+02</wgt>
<wgt id='2101'>0.79091E+02</wgt>
<wgt id='2102'>0.83433E+02</wgt>
<wgt id='2200'>0.81259E+02</wgt>
<wgt id='2201'>0.71457E+02</wgt>
<wgt id='2202'>0.73403E+02</wgt>
<wgt id='2203'>0.75486E+02</wgt>
<wgt id='2204'>0.77216E+02</wgt>
<wgt id='2205'>0.80258E+02</wgt>
<wgt id='2206'>0.82274E+02</wgt>
<wgt id='2207'>0.85117E+02</wgt>
<wgt id='2208'>0.87120E+02</wgt>
<wgt id='2300'>0.84512E+02</wgt>
<wgt id='2301'>0.84482E+02</wgt>
<wgt id='2302'>0.84564E+02</wgt>
<wgt id='2303'>0.84414E+02</wgt>
<wgt id='2304'>0.84698E+02</wgt>
<wgt id='2305'>0.84465E+02</wgt>
<wgt id='2306'>0.84404E+02</wgt>
<wgt id='2307'>0.84594E+02</wgt>
<wgt id='2308'>0.84563E+02</wgt>
<wgt id='2309'>0.84716E+02</wgt>
<wgt id='2310'>0.84525E+02</wgt>
<wgt id='2311'>0.84302E+02</wgt>
<wgt id='2312'>0.84351E+02</wgt>
<wgt id='2313'>0.84878E+02</wgt>
<wgt id='2314'>0.84412E+02</wgt>
<wgt id='2315'>0.84287E+02</wgt>
<wgt id='2316'>0.84501E+02</wgt>
<wgt id='2317'>0.84355E+02</wgt>
<wgt id='2318'>0.84628E+02</wgt>
<wgt id='2319'>0.84692E+02</wgt>
<wgt id='2320'>0.84476E+02</wgt>
<wgt id='2321'>0.84522E+02</wgt>
<wgt id='2322'>0.84523E+02</wgt>
<wgt id='2323'>0.84444E+02</wgt>
<wgt id='2324'>0.84296E+02</wgt>
<wgt id='2325'>0.84616E+02</wgt>
<wgt id='2326'>0.84625E+02</wgt>
<wgt id='2327'>0.84524E+02</wgt>
<wgt id='2328'>0.84139E+02</wgt>
<wgt id='2329'>0.84151E+02</wgt>
<wgt id='2330'>0.85013E+02</wgt>
<wgt id='2331'>0.84773E+02</wgt>
<wgt id='2332'>0.84696E+02</wgt>
<wgt id='2333'>0.84870E+02</wgt>
<wgt id='2334'>0.84581E+02</wgt>
<wgt id='2335'>0.84973E+02</wgt>
<wgt id='2336'>0.84614E+02</wgt>
<wgt id='2337'>0.84453E+02</wgt>
<wgt id='2338'>0.84539E+02</wgt>
<wgt id='2339'>0.84403E+02</wgt>
<wgt id='2340'>0.84428E+02</wgt>
<wgt id='2341'>0.84636E+02</wgt>
<wgt id='2342'>0.84398E+02</wgt>
<wgt id='2343'>0.84379E+02</wgt>
<wgt id='2344'>0.84511E+02</wgt>
<wgt id='2345'>0.84599E+02</wgt>
<wgt id='2346'>0.84646E+02</wgt>
<wgt id='2347'>0.84531E+02</wgt>
<wgt id='2348'>0.84541E+02</wgt>
<wgt id='2349'>0.84498E+02</wgt>
<wgt id='2350'>0.84459E+02</wgt>
<wgt id='2351'>0.84634E+02</wgt>
<wgt id='2352'>0.84431E+02</wgt>
<wgt id='2353'>0.84478E+02</wgt>
<wgt id='2354'>0.84525E+02</wgt>
<wgt id='2355'>0.84343E+02</wgt>
<wgt id='2356'>0.84528E+02</wgt>
<wgt id='2357'>0.84482E+02</wgt>
<wgt id='2358'>0.84426E+02</wgt>
<wgt id='2359'>0.84522E+02</wgt>
<wgt id='2360'>0.84552E+02</wgt>
<wgt id='2361'>0.84527E+02</wgt>
<wgt id='2362'>0.84540E+02</wgt>
<wgt id='2363'>0.84566E+02</wgt>
<wgt id='2364'>0.84466E+02</wgt>
<wgt id='2365'>0.84501E+02</wgt>
<wgt id='2366'>0.84536E+02</wgt>
<wgt id='2367'>0.84451E+02</wgt>
<wgt id='2368'>0.84547E+02</wgt>
<wgt id='2369'>0.84493E+02</wgt>
<wgt id='2370'>0.84540E+02</wgt>
<wgt id='2371'>0.84491E+02</wgt>
<wgt id='2372'>0.84502E+02</wgt>
<wgt id='2373'>0.84460E+02</wgt>
<wgt id='2374'>0.84558E+02</wgt>
<wgt id='2375'>0.84500E+02</wgt>
<wgt id='2376'>0.84507E+02</wgt>
<wgt id='2377'>0.84535E+02</wgt>
<wgt id='2378'>0.84530E+02</wgt>
<wgt id='2379'>0.84501E+02</wgt>
<wgt id='2380'>0.84506E+02</wgt>
<wgt id='2381'>0.84515E+02</wgt>
<wgt id='2382'>0.84493E+02</wgt>
<wgt id='2383'>0.84517E+02</wgt>
<wgt id='2384'>0.84503E+02</wgt>
<wgt id='2385'>0.84520E+02</wgt>
<wgt id='2386'>0.84484E+02</wgt>
<wgt id='2387'>0.84500E+02</wgt>
<wgt id='2388'>0.84510E+02</wgt>
<wgt id='2389'>0.84510E+02</wgt>
<wgt id='2390'>0.84521E+02</wgt>
<wgt id='2391'>0.84518E+02</wgt>
<wgt id='2392'>0.84516E+02</wgt>
<wgt id='2393'>0.84514E+02</wgt>
<wgt id='2394'>0.84532E+02</wgt>
<wgt id='2395'>0.84516E+02</wgt>
<wgt id='2396'>0.84505E+02</wgt>
<wgt id='2397'>0.84494E+02</wgt>
<wgt id='2398'>0.84506E+02</wgt>
<wgt id='2399'>0.84526E+02</wgt>
<wgt id='2400'>0.84515E+02</wgt>
<wgt id='2401'>0.82259E+02</wgt>
<wgt id='2402'>0.86475E+02</wgt>
<wgt id='2500'>0.81710E+02</wgt>
<wgt id='2501'>0.87156E+02</wgt>
<wgt id='2600'>0.77782E+02</wgt>
<wgt id='2601'>0.77825E+02</wgt>
<wgt id='2602'>0.77640E+02</wgt>
<wgt id='2603'>0.77743E+02</wgt>
<wgt id='2604'>0.77685E+02</wgt>
<wgt id='2605'>0.77677E+02</wgt>
<wgt id='2606'>0.77727E+02</wgt>
<wgt id='2607'>0.77766E+02</wgt>
<wgt id='2608'>0.77786E+02</wgt>
<wgt id='2609'>0.77648E+02</wgt>
<wgt id='2610'>0.77728E+02</wgt>
<wgt id='2611'>0.77690E+02</wgt>
<wgt id='2612'>0.78058E+02</wgt>
<wgt id='2613'>0.77718E+02</wgt>
<wgt id='2614'>0.77727E+02</wgt>
<wgt id='2615'>0.77527E+02</wgt>
<wgt id='2616'>0.77729E+02</wgt>
<wgt id='2617'>0.77538E+02</wgt>
<wgt id='2618'>0.77478E+02</wgt>
<wgt id='2619'>0.77862E+02</wgt>
<wgt id='2620'>0.77788E+02</wgt>
<wgt id='2621'>0.77748E+02</wgt>
<wgt id='2622'>0.77994E+02</wgt>
<wgt id='2623'>0.77781E+02</wgt>
<wgt id='2624'>0.77806E+02</wgt>
<wgt id='2625'>0.77643E+02</wgt>
<wgt id='2626'>0.77745E+02</wgt>
<wgt id='2627'>0.77712E+02</wgt>
<wgt id='2628'>0.77821E+02</wgt>
<wgt id='2629'>0.77771E+02</wgt>
<wgt id='2630'>0.77758E+02</wgt>
<wgt id='2631'>0.77755E+02</wgt>
<wgt id='2632'>0.77815E+02</wgt>
<wgt id='2633'>0.77774E+02</wgt>
<wgt id='2634'>0.77787E+02</wgt>
<wgt id='2635'>0.77786E+02</wgt>
<wgt id='2636'>0.77754E+02</wgt>
<wgt id='2637'>0.77780E+02</wgt>
<wgt id='2638'>0.77813E+02</wgt>
<wgt id='2639'>0.77776E+02</wgt>
<wgt id='2640'>0.77784E+02</wgt>
<wgt id='2641'>0.77798E+02</wgt>
<wgt id='2642'>0.77790E+02</wgt>
<wgt id='2643'>0.77805E+02</wgt>
<wgt id='2644'>0.77776E+02</wgt>
<wgt id='2645'>0.77784E+02</wgt>
<wgt id='2646'>0.77751E+02</wgt>
<wgt id='2647'>0.77794E+02</wgt>
<wgt id='2648'>0.77789E+02</wgt>
<wgt id='2649'>0.77790E+02</wgt>
<wgt id='2650'>0.77783E+02</wgt>
<wgt id='2651'>0.76493E+02</wgt>
<wgt id='2652'>0.78986E+02</wgt>
<wgt id='2700'>0.75253E+02</wgt>
<wgt id='2701'>0.76493E+02</wgt>
<wgt id='2702'>0.77189E+02</wgt>
<wgt id='2703'>0.78251E+02</wgt>
<wgt id='2704'>0.78986E+02</wgt>
<wgt id='2705'>0.80045E+02</wgt>
<wgt id='2800'>0.78705E+02</wgt>
<wgt id='4000'>0.80471E+02</wgt>
<wgt id='4001'>0.80881E+02</wgt>
<wgt id='4002'>0.80466E+02</wgt>
<wgt id='4003'>0.80654E+02</wgt>
<wgt id='4004'>0.80417E+02</wgt>
<wgt id='4005'>0.80284E+02</wgt>
<wgt id='4006'>0.80788E+02</wgt>
<wgt id='4007'>0.81451E+02</wgt>
<wgt id='4008'>0.79553E+02</wgt>
<wgt id='4009'>0.80964E+02</wgt>
<wgt id='4010'>0.79969E+02</wgt>
<wgt id='4011'>0.80812E+02</wgt>
<wgt id='4012'>0.80185E+02</wgt>
<wgt id='4013'>0.81247E+02</wgt>
<wgt id='4014'>0.79830E+02</wgt>
<wgt id='4015'>0.79841E+02</wgt>
<wgt id='4016'>0.81375E+02</wgt>
<wgt id='4017'>0.80398E+02</wgt>
<wgt id='4018'>0.80602E+02</wgt>
<wgt id='4019'>0.81080E+02</wgt>
<wgt id='4020'>0.79629E+02</wgt>
<wgt id='4021'>0.80634E+02</wgt>
<wgt id='4022'>0.80178E+02</wgt>
<wgt id='4023'>0.80783E+02</wgt>
<wgt id='4024'>0.80402E+02</wgt>
<wgt id='4025'>0.80691E+02</wgt>
<wgt id='4026'>0.80028E+02</wgt>
<wgt id='4027'>0.80554E+02</wgt>
<wgt id='4028'>0.80537E+02</wgt>
<wgt id='4029'>0.80194E+02</wgt>
<wgt id='4030'>0.79927E+02</wgt>
<wgt id='4031'>0.79986E+02</wgt>
<wgt id='4032'>0.81456E+02</wgt>
<wgt id='4033'>0.80914E+02</wgt>
<wgt id='4034'>0.79661E+02</wgt>
<wgt id='4035'>0.82057E+02</wgt>
<wgt id='4036'>0.79331E+02</wgt>
<wgt id='4037'>0.82248E+02</wgt>
<wgt id='4038'>0.79210E+02</wgt>
<wgt id='4039'>0.82147E+02</wgt>
<wgt id='4040'>0.78821E+02</wgt>
<wgt id='4041'>0.80461E+02</wgt>
<wgt id='4042'>0.80326E+02</wgt>
<wgt id='4043'>0.79465E+02</wgt>
<wgt id='4044'>0.80397E+02</wgt>
<wgt id='4045'>0.81795E+02</wgt>
<wgt id='4046'>0.79899E+02</wgt>
<wgt id='4047'>0.79675E+02</wgt>
<wgt id='4048'>0.80948E+02</wgt>
<wgt id='4049'>0.80567E+02</wgt>
<wgt id='4050'>0.80434E+02</wgt>
<wgt id='4051'>0.81370E+02</wgt>
<wgt id='4052'>0.79747E+02</wgt>
<wgt id='4053'>0.81057E+02</wgt>
<wgt id='4054'>0.79333E+02</wgt>
<wgt id='4055'>0.80991E+02</wgt>
<wgt id='4056'>0.80011E+02</wgt>
<wgt id='4057'>0.79602E+02</wgt>
<wgt id='4058'>0.81005E+02</wgt>
<wgt id='4100'>0.80611E+02</wgt>
<wgt id='4101'>0.80553E+02</wgt>
<wgt id='4102'>0.80361E+02</wgt>
<wgt id='4103'>0.80224E+02</wgt>
<wgt id='4200'>0.76966E+02</wgt>
<wgt id='4201'>0.77075E+02</wgt>
<wgt id='4202'>0.77194E+02</wgt>
<wgt id='4203'>0.76171E+02</wgt>
<wgt id='4204'>0.77571E+02</wgt>
<wgt id='4205'>0.76823E+02</wgt>
<wgt id='4206'>0.77355E+02</wgt>
<wgt id='4207'>0.77007E+02</wgt>
<wgt id='4208'>0.77015E+02</wgt>
<wgt id='4209'>0.77265E+02</wgt>
<wgt id='4210'>0.76944E+02</wgt>
<wgt id='4211'>0.78101E+02</wgt>
<wgt id='4212'>0.76104E+02</wgt>
<wgt id='4213'>0.77242E+02</wgt>
<wgt id='4214'>0.76557E+02</wgt>
<wgt id='4215'>0.76997E+02</wgt>
<wgt id='4216'>0.76809E+02</wgt>
<wgt id='4217'>0.76597E+02</wgt>
<wgt id='4218'>0.77238E+02</wgt>
<wgt id='4219'>0.75692E+02</wgt>
<wgt id='4220'>0.78221E+02</wgt>
<wgt id='4221'>0.76310E+02</wgt>
<wgt id='4222'>0.77863E+02</wgt>
<wgt id='4223'>0.77158E+02</wgt>
<wgt id='4224'>0.76172E+02</wgt>
<wgt id='4225'>0.75625E+02</wgt>
<wgt id='4226'>0.78416E+02</wgt>
<wgt id='4227'>0.77881E+02</wgt>
<wgt id='4228'>0.76216E+02</wgt>
<wgt id='4229'>0.75700E+02</wgt>
<wgt id='4230'>0.77888E+02</wgt>
<wgt id='4231'>0.77168E+02</wgt>
<wgt id='4232'>0.76605E+02</wgt>
<wgt id='4233'>0.77268E+02</wgt>
<wgt id='4234'>0.76291E+02</wgt>
<wgt id='4235'>0.77476E+02</wgt>
<wgt id='4236'>0.76583E+02</wgt>
<wgt id='4237'>0.77259E+02</wgt>
<wgt id='4238'>0.76248E+02</wgt>
<wgt id='4239'>0.77093E+02</wgt>
<wgt id='4240'>0.75846E+02</wgt>
<wgt id='4241'>0.76777E+02</wgt>
<wgt id='4242'>0.77146E+02</wgt>
<wgt id='4243'>0.76846E+02</wgt>
<wgt id='4244'>0.77519E+02</wgt>
<wgt id='4245'>0.76339E+02</wgt>
<wgt id='4246'>0.77443E+02</wgt>
<wgt id='4247'>0.76670E+02</wgt>
<wgt id='4248'>0.77029E+02</wgt>
<wgt id='4249'>0.78416E+02</wgt>
<wgt id='4250'>0.75343E+02</wgt>
<wgt id='4251'>0.76856E+02</wgt>
<wgt id='4252'>0.76971E+02</wgt>
<wgt id='4253'>0.76826E+02</wgt>
<wgt id='4254'>0.76924E+02</wgt>
<wgt id='4255'>0.77650E+02</wgt>
<wgt id='4256'>0.76543E+02</wgt>
<wgt id='4257'>0.75521E+02</wgt>
<wgt id='4258'>0.77372E+02</wgt>
<wgt id='4300'>0.79732E+02</wgt>
<wgt id='4301'>0.78628E+02</wgt>
<wgt id='5000'>0.79987E+02</wgt>
<wgt id='5001'>0.80040E+02</wgt>
<wgt id='5002'>0.79919E+02</wgt>
<wgt id='5003'>0.80005E+02</wgt>
<wgt id='5004'>0.79971E+02</wgt>
<wgt id='5005'>0.80011E+02</wgt>
<wgt id='5006'>0.79947E+02</wgt>
<wgt id='5007'>0.80059E+02</wgt>
<wgt id='5008'>0.79929E+02</wgt>
<wgt id='5009'>0.80121E+02</wgt>
<wgt id='5010'>0.79849E+02</wgt>
<wgt id='5011'>0.80185E+02</wgt>
<wgt id='5012'>0.79797E+02</wgt>
<wgt id='5013'>0.80141E+02</wgt>
<wgt id='5014'>0.79877E+02</wgt>
<wgt id='5015'>0.79571E+02</wgt>
<wgt id='5016'>0.79571E+02</wgt>
<wgt id='5017'>0.80398E+02</wgt>
<wgt id='5018'>0.79710E+02</wgt>
<wgt id='5019'>0.80257E+02</wgt>
<wgt id='5020'>0.79616E+02</wgt>
<wgt id='5021'>0.80058E+02</wgt>
<wgt id='5022'>0.79879E+02</wgt>
<wgt id='5023'>0.79928E+02</wgt>
<wgt id='5024'>0.80126E+02</wgt>
<wgt id='5025'>0.79782E+02</wgt>
<wgt id='5026'>0.80214E+02</wgt>
<wgt id='5027'>0.80043E+02</wgt>
<wgt id='5028'>0.79836E+02</wgt>
<wgt id='5029'>0.80946E+02</wgt>
<wgt id='5030'>0.79448E+02</wgt>
<wgt id='5031'>0.79461E+02</wgt>
<wgt id='5032'>0.81603E+02</wgt>
<wgt id='5033'>0.79948E+02</wgt>
<wgt id='5034'>0.80029E+02</wgt>
<wgt id='5035'>0.79998E+02</wgt>
<wgt id='5036'>0.79973E+02</wgt>
<wgt id='5037'>0.79767E+02</wgt>
<wgt id='5038'>0.80111E+02</wgt>
<wgt id='5039'>0.80190E+02</wgt>
<wgt id='5040'>0.79479E+02</wgt>
<wgt id='5041'>0.79963E+02</wgt>
<wgt id='5042'>0.80001E+02</wgt>
<wgt id='5043'>0.80202E+02</wgt>
<wgt id='5044'>0.79828E+02</wgt>
<wgt id='5045'>0.79762E+02</wgt>
<wgt id='5046'>0.80595E+02</wgt>
<wgt id='5047'>0.80047E+02</wgt>
<wgt id='5048'>0.79720E+02</wgt>
<wgt id='5049'>0.79956E+02</wgt>
<wgt id='5050'>0.80088E+02</wgt>
<wgt id='5051'>0.80138E+02</wgt>
<wgt id='5052'>0.79881E+02</wgt>
<wgt id='5053'>0.80026E+02</wgt>
<wgt id='5054'>0.80181E+02</wgt>
<wgt id='5055'>0.80008E+02</wgt>
<wgt id='5056'>0.80039E+02</wgt>
<wgt id='5057'>0.79692E+02</wgt>
<wgt id='5058'>0.80194E+02</wgt>
<wgt id='5059'>0.79947E+02</wgt>
<wgt id='5060'>0.80018E+02</wgt>
<wgt id='5061'>0.80368E+02</wgt>
<wgt id='5062'>0.80044E+02</wgt>
<wgt id='5063'>0.80367E+02</wgt>
<wgt id='5064'>0.79912E+02</wgt>
<wgt id='5100'>0.79987E+02</wgt>
<wgt id='5101'>0.79980E+02</wgt>
<wgt id='6000'>0.80016E+02</wgt>
<wgt id='6001'>0.80090E+02</wgt>
<wgt id='6002'>0.79876E+02</wgt>
<wgt id='6003'>0.79906E+02</wgt>
<wgt id='6004'>0.80125E+02</wgt>
<wgt id='6005'>0.79778E+02</wgt>
<wgt id='6006'>0.80296E+02</wgt>
<wgt id='6007'>0.79786E+02</wgt>
<wgt id='6008'>0.80114E+02</wgt>
<wgt id='6009'>0.80270E+02</wgt>
<wgt id='6010'>0.78656E+02</wgt>
<wgt id='6011'>0.79995E+02</wgt>
<wgt id='6012'>0.80315E+02</wgt>
<wgt id='6013'>0.79765E+02</wgt>
<wgt id='6014'>0.79881E+02</wgt>
<wgt id='6015'>0.79428E+02</wgt>
<wgt id='6016'>0.80163E+02</wgt>
<wgt id='6017'>0.79947E+02</wgt>
<wgt id='6018'>0.79746E+02</wgt>
<wgt id='6019'>0.80067E+02</wgt>
<wgt id='6020'>0.80167E+02</wgt>
<wgt id='6021'>0.80066E+02</wgt>
<wgt id='6022'>0.80149E+02</wgt>
<wgt id='6023'>0.80026E+02</wgt>
<wgt id='6024'>0.80102E+02</wgt>
<wgt id='6025'>0.80298E+02</wgt>
<wgt id='6026'>0.80019E+02</wgt>
<wgt id='6027'>0.80012E+02</wgt>
<wgt id='6028'>0.79823E+02</wgt>
<wgt id='6029'>0.79824E+02</wgt>
<wgt id='6030'>0.80370E+02</wgt>
<wgt id='6031'>0.79823E+02</wgt>
<wgt id='6032'>0.80074E+02</wgt>
<wgt id='6033'>0.79885E+02</wgt>
<wgt id='6034'>0.80258E+02</wgt>
<wgt id='6035'>0.80078E+02</wgt>
<wgt id='6036'>0.80564E+02</wgt>
<wgt id='6037'>0.80017E+02</wgt>
<wgt id='6038'>0.80083E+02</wgt>
<wgt id='6039'>0.80171E+02</wgt>
<wgt id='6040'>0.79980E+02</wgt>
<wgt id='6041'>0.78585E+02</wgt>
<wgt id='6042'>0.80500E+02</wgt>
<wgt id='7000'>0.79554E+02</wgt>
<wgt id='7001'>0.78773E+02</wgt>
<wgt id='7002'>0.78956E+02</wgt>
<wgt id='7003'>0.78809E+02</wgt>
<wgt id='7004'>0.78921E+02</wgt>
<wgt id='7005'>0.78940E+02</wgt>
<wgt id='7006'>0.78789E+02</wgt>
<wgt id='7007'>0.79389E+02</wgt>
<wgt id='7008'>0.78356E+02</wgt>
<wgt id='7009'>0.78433E+02</wgt>
<wgt id='7010'>0.79310E+02</wgt>
<wgt id='7011'>0.79156E+02</wgt>
<wgt id='7012'>0.78577E+02</wgt>
<wgt id='7013'>0.78774E+02</wgt>
<wgt id='7014'>0.78946E+02</wgt>
<wgt id='7015'>0.78824E+02</wgt>
<wgt id='7016'>0.78655E+02</wgt>
<wgt id='7017'>0.78897E+02</wgt>
<wgt id='7018'>0.78841E+02</wgt>
<wgt id='7019'>0.78756E+02</wgt>
<wgt id='7020'>0.78987E+02</wgt>
<wgt id='7021'>0.79289E+02</wgt>
<wgt id='7022'>0.78455E+02</wgt>
<wgt id='7023'>0.78373E+02</wgt>
<wgt id='7024'>0.79377E+02</wgt>
<wgt id='7025'>0.77678E+02</wgt>
<wgt id='7026'>0.80024E+02</wgt>
<wgt id='7027'>0.78358E+02</wgt>
<wgt id='7028'>0.79415E+02</wgt>
<wgt id='8000'>0.79560E+02</wgt>
<wgt id='8001'>0.79555E+02</wgt>
<wgt id='8002'>0.79584E+02</wgt>
<wgt id='8003'>0.79560E+02</wgt>
<wgt id='8004'>0.79558E+02</wgt>
<wgt id='8005'>0.79429E+02</wgt>
<wgt id='8006'>0.79678E+02</wgt>
<wgt id='8007'>0.79788E+02</wgt>
<wgt id='8008'>0.79747E+02</wgt>
<wgt id='8009'>0.79901E+02</wgt>
<wgt id='8010'>0.79449E+02</wgt>
<wgt id='8011'>0.79590E+02</wgt>
<wgt id='8012'>0.79209E+02</wgt>
<wgt id='8013'>0.79367E+02</wgt>
<wgt id='8014'>0.79814E+02</wgt>
<wgt id='8015'>0.79518E+02</wgt>
<wgt id='8016'>0.79652E+02</wgt>
<wgt id='8017'>0.79627E+02</wgt>
<wgt id='8018'>0.79815E+02</wgt>
<wgt id='8019'>0.79587E+02</wgt>
<wgt id='8020'>0.79586E+02</wgt>
<wgt id='8021'>0.79470E+02</wgt>
<wgt id='8022'>0.79602E+02</wgt>
<wgt id='8023'>0.79424E+02</wgt>
<wgt id='8024'>0.79203E+02</wgt>
<wgt id='8025'>0.79427E+02</wgt>
<wgt id='8026'>0.79645E+02</wgt>
<wgt id='8027'>0.79663E+02</wgt>
<wgt id='8028'>0.79612E+02</wgt>
<wgt id='8029'>0.79590E+02</wgt>
<wgt id='3000'>0.81104E+02</wgt>
<wgt id='3001'>0.82417E+02</wgt>
<wgt id='3002'>0.79502E+02</wgt>
<wgt id='3003'>0.80941E+02</wgt>
<wgt id='3004'>0.81910E+02</wgt>
<wgt id='3005'>0.80556E+02</wgt>
<wgt id='3006'>0.85309E+02</wgt>
<wgt id='3007'>0.81258E+02</wgt>
<wgt id='3008'>0.80417E+02</wgt>
<wgt id='3009'>0.80694E+02</wgt>
<wgt id='3010'>0.82565E+02</wgt>
<wgt id='3011'>0.82381E+02</wgt>
<wgt id='3012'>0.83035E+02</wgt>
<wgt id='3013'>0.80474E+02</wgt>
<wgt id='3014'>0.81342E+02</wgt>
<wgt id='3015'>0.78434E+02</wgt>
<wgt id='3016'>0.81007E+02</wgt>
<wgt id='3017'>0.82475E+02</wgt>
<wgt id='3018'>0.81510E+02</wgt>
<wgt id='3019'>0.78413E+02</wgt>
<wgt id='3020'>0.79262E+02</wgt>
<wgt id='3021'>0.79817E+02</wgt>
<wgt id='3022'>0.78076E+02</wgt>
<wgt id='3023'>0.79001E+02</wgt>
<wgt id='3024'>0.80611E+02</wgt>
<wgt id='3025'>0.79868E+02</wgt>
<wgt id='3026'>0.80122E+02</wgt>
<wgt id='3027'>0.78292E+02</wgt>
<wgt id='3028'>0.82166E+02</wgt>
<wgt id='3029'>0.82017E+02</wgt>
<wgt id='3030'>0.82276E+02</wgt>
<wgt id='3031'>0.82059E+02</wgt>
<wgt id='3032'>0.83708E+02</wgt>
<wgt id='3033'>0.80240E+02</wgt>
<wgt id='3034'>0.82685E+02</wgt>
<wgt id='3035'>0.81249E+02</wgt>
<wgt id='3036'>0.82199E+02</wgt>
<wgt id='3037'>0.80649E+02</wgt>
<wgt id='3038'>0.80708E+02</wgt>
<wgt id='3039'>0.81094E+02</wgt>
<wgt id='3040'>0.81247E+02</wgt>
<wgt id='3041'>0.80880E+02</wgt>
<wgt id='3042'>0.82591E+02</wgt>
<wgt id='3043'>0.81247E+02</wgt>
<wgt id='3044'>0.81846E+02</wgt>
<wgt id='3045'>0.81008E+02</wgt>
<wgt id='3046'>0.81775E+02</wgt>
<wgt id='3047'>0.81353E+02</wgt>
<wgt id='3048'>0.80689E+02</wgt>
<wgt id='3049'>0.80477E+02</wgt>
<wgt id='3050'>0.82684E+02</wgt>
<wgt id='3051'>0.81729E+02</wgt>
<wgt id='3052'>0.80496E+02</wgt>
<wgt id='3053'>0.80011E+02</wgt>
<wgt id='3054'>0.81283E+02</wgt>
<wgt id='3055'>0.80388E+02</wgt>
<wgt id='3056'>0.81041E+02</wgt>
<wgt id='3057'>0.80552E+02</wgt>
<wgt id='3058'>0.79847E+02</wgt>
<wgt id='3059'>0.80861E+02</wgt>
<wgt id='3060'>0.81631E+02</wgt>
<wgt id='3061'>0.80976E+02</wgt>
<wgt id='3062'>0.80981E+02</wgt>
<wgt id='3063'>0.79321E+02</wgt>
<wgt id='3064'>0.81231E+02</wgt>
<wgt id='3065'>0.80415E+02</wgt>
<wgt id='3066'>0.81724E+02</wgt>
<wgt id='3067'>0.80206E+02</wgt>
<wgt id='3068'>0.80894E+02</wgt>
<wgt id='3069'>0.81577E+02</wgt>
<wgt id='3070'>0.81014E+02</wgt>
<wgt id='3071'>0.80729E+02</wgt>
<wgt id='3072'>0.78143E+02</wgt>
<wgt id='3073'>0.81551E+02</wgt>
<wgt id='3074'>0.80128E+02</wgt>
<wgt id='3075'>0.82391E+02</wgt>
<wgt id='3076'>0.81873E+02</wgt>
<wgt id='3077'>0.80553E+02</wgt>
<wgt id='3078'>0.80891E+02</wgt>
<wgt id='3079'>0.80413E+02</wgt>
<wgt id='3080'>0.82738E+02</wgt>
<wgt id='3081'>0.80569E+02</wgt>
<wgt id='3082'>0.81007E+02</wgt>
<wgt id='3083'>0.81710E+02</wgt>
<wgt id='3084'>0.80599E+02</wgt>
<wgt id='3085'>0.80563E+02</wgt>
<wgt id='3086'>0.81878E+02</wgt>
<wgt id='3087'>0.81214E+02</wgt>
<wgt id='3088'>0.83608E+02</wgt>
<wgt id='3089'>0.83341E+02</wgt>
<wgt id='3090'>0.83020E+02</wgt>
<wgt id='3091'>0.80920E+02</wgt>
<wgt id='3092'>0.81769E+02</wgt>
<wgt id='3093'>0.80879E+02</wgt>
<wgt id='3094'>0.81464E+02</wgt>
<wgt id='3095'>0.82878E+02</wgt>
<wgt id='3096'>0.79895E+02</wgt>
<wgt id='3097'>0.81515E+02</wgt>
<wgt id='3098'>0.82091E+02</wgt>
<wgt id='3099'>0.79748E+02</wgt>
<wgt id='3100'>0.80100E+02</wgt>
<wgt id='3200'>0.77837E+02</wgt>
<wgt id='3201'>0.78746E+02</wgt>
<wgt id='3202'>0.76569E+02</wgt>
<wgt id='3203'>0.78392E+02</wgt>
<wgt id='3204'>0.76858E+02</wgt>
<wgt id='3205'>0.78580E+02</wgt>
<wgt id='3206'>0.78608E+02</wgt>
<wgt id='3207'>0.78936E+02</wgt>
<wgt id='3208'>0.78530E+02</wgt>
<wgt id='3209'>0.77501E+02</wgt>
<wgt id='3210'>0.77693E+02</wgt>
<wgt id='3211'>0.77876E+02</wgt>
<wgt id='3212'>0.76850E+02</wgt>
<wgt id='3213'>0.78069E+02</wgt>
<wgt id='3214'>0.77926E+02</wgt>
<wgt id='3215'>0.77992E+02</wgt>
<wgt id='3216'>0.79395E+02</wgt>
<wgt id='3217'>0.78341E+02</wgt>
<wgt id='3218'>0.77898E+02</wgt>
<wgt id='3219'>0.77236E+02</wgt>
<wgt id='3220'>0.77822E+02</wgt>
<wgt id='3221'>0.78593E+02</wgt>
<wgt id='3222'>0.79661E+02</wgt>
<wgt id='3223'>0.77268E+02</wgt>
<wgt id='3224'>0.77941E+02</wgt>
<wgt id='3225'>0.78815E+02</wgt>
<wgt id='3226'>0.78350E+02</wgt>
<wgt id='3227'>0.77476E+02</wgt>
<wgt id='3228'>0.77404E+02</wgt>
<wgt id='3229'>0.78212E+02</wgt>
<wgt id='3230'>0.78358E+02</wgt>
<wgt id='3231'>0.78023E+02</wgt>
<wgt id='3232'>0.78114E+02</wgt>
<wgt id='3233'>0.78974E+02</wgt>
<wgt id='3234'>0.77233E+02</wgt>
<wgt id='3235'>0.77168E+02</wgt>
<wgt id='3236'>0.76487E+02</wgt>
<wgt id='3237'>0.77665E+02</wgt>
<wgt id='3238'>0.77468E+02</wgt>
<wgt id='3239'>0.77552E+02</wgt>
<wgt id='3240'>0.76833E+02</wgt>
<wgt id='3241'>0.78562E+02</wgt>
<wgt id='3242'>0.77367E+02</wgt>
<wgt id='3243'>0.76756E+02</wgt>
<wgt id='3244'>0.77554E+02</wgt>
<wgt id='3245'>0.77772E+02</wgt>
<wgt id='3246'>0.76838E+02</wgt>
<wgt id='3247'>0.78450E+02</wgt>
<wgt id='3248'>0.77596E+02</wgt>
<wgt id='3249'>0.76983E+02</wgt>
<wgt id='3250'>0.78131E+02</wgt>
<wgt id='3251'>0.77552E+02</wgt>
<wgt id='3252'>0.78208E+02</wgt>
<wgt id='3253'>0.77288E+02</wgt>
<wgt id='3254'>0.77138E+02</wgt>
<wgt id='3255'>0.77608E+02</wgt>
<wgt id='3256'>0.77963E+02</wgt>
<wgt id='3257'>0.77567E+02</wgt>
<wgt id='3258'>0.77947E+02</wgt>
<wgt id='3259'>0.78184E+02</wgt>
<wgt id='3260'>0.78518E+02</wgt>
<wgt id='3261'>0.78836E+02</wgt>
<wgt id='3262'>0.77606E+02</wgt>
<wgt id='3263'>0.79682E+02</wgt>
<wgt id='3264'>0.77635E+02</wgt>
<wgt id='3265'>0.77230E+02</wgt>
<wgt id='3266'>0.77665E+02</wgt>
<wgt id='3267'>0.77265E+02</wgt>
<wgt id='3268'>0.77990E+02</wgt>
<wgt id='3269'>0.78052E+02</wgt>
<wgt id='3270'>0.77744E+02</wgt>
<wgt id='3271'>0.77990E+02</wgt>
<wgt id='3272'>0.78206E+02</wgt>
<wgt id='3273'>0.77351E+02</wgt>
<wgt id='3274'>0.77739E+02</wgt>
<wgt id='3275'>0.78302E+02</wgt>
<wgt id='3276'>0.76734E+02</wgt>
<wgt id='3277'>0.77147E+02</wgt>
<wgt id='3278'>0.77521E+02</wgt>
<wgt id='3279'>0.78822E+02</wgt>
<wgt id='3280'>0.77687E+02</wgt>
<wgt id='3281'>0.78144E+02</wgt>
<wgt id='3282'>0.77949E+02</wgt>
<wgt id='3283'>0.78386E+02</wgt>
<wgt id='3284'>0.78216E+02</wgt>
<wgt id='3285'>0.77121E+02</wgt>
<wgt id='3286'>0.77129E+02</wgt>
<wgt id='3287'>0.77547E+02</wgt>
<wgt id='3288'>0.77889E+02</wgt>
<wgt id='3289'>0.78464E+02</wgt>
<wgt id='3290'>0.78980E+02</wgt>
<wgt id='3291'>0.76212E+02</wgt>
<wgt id='3292'>0.77443E+02</wgt>
<wgt id='3293'>0.78077E+02</wgt>
<wgt id='3294'>0.76085E+02</wgt>
<wgt id='3295'>0.77634E+02</wgt>
<wgt id='3296'>0.79095E+02</wgt>
<wgt id='3297'>0.77305E+02</wgt>
<wgt id='3298'>0.77456E+02</wgt>
<wgt id='3299'>0.77587E+02</wgt>
<wgt id='3300'>0.78493E+02</wgt>
<wgt id='3301'>0.76493E+02</wgt>
<wgt id='3302'>0.78986E+02</wgt>
<wgt id='3400'>0.78369E+02</wgt>
<wgt id='3401'>0.78447E+02</wgt>
<wgt id='3402'>0.77331E+02</wgt>
<wgt id='3403'>0.78950E+02</wgt>
<wgt id='3404'>0.79342E+02</wgt>
<wgt id='3405'>0.79521E+02</wgt>
<wgt id='3406'>0.78081E+02</wgt>
<wgt id='3407'>0.77455E+02</wgt>
<wgt id='3408'>0.79437E+02</wgt>
<wgt id='3409'>0.79674E+02</wgt>
<wgt id='3410'>0.79335E+02</wgt>
<wgt id='3411'>0.78562E+02</wgt>
<wgt id='3412'>0.78620E+02</wgt>
<wgt id='3413'>0.78264E+02</wgt>
<wgt id='3414'>0.78485E+02</wgt>
<wgt id='3415'>0.78357E+02</wgt>
<wgt id='3416'>0.78151E+02</wgt>
<wgt id='3417'>0.77663E+02</wgt>
<wgt id='3418'>0.77817E+02</wgt>
<wgt id='3419'>0.77529E+02</wgt>
<wgt id='3420'>0.78543E+02</wgt>
<wgt id='3421'>0.79054E+02</wgt>
<wgt id='3422'>0.78218E+02</wgt>
<wgt id='3423'>0.79218E+02</wgt>
<wgt id='3424'>0.78759E+02</wgt>
<wgt id='3425'>0.78906E+02</wgt>
<wgt id='3426'>0.77855E+02</wgt>
<wgt id='3427'>0.78615E+02</wgt>
<wgt id='3428'>0.78655E+02</wgt>
<wgt id='3429'>0.77754E+02</wgt>
<wgt id='3430'>0.78210E+02</wgt>
<wgt id='3431'>0.77856E+02</wgt>
<wgt id='3432'>0.77342E+02</wgt>
<wgt id='3433'>0.77435E+02</wgt>
<wgt id='3434'>0.78835E+02</wgt>
<wgt id='3435'>0.79168E+02</wgt>
<wgt id='3436'>0.78110E+02</wgt>
<wgt id='3437'>0.77713E+02</wgt>
<wgt id='3438'>0.77607E+02</wgt>
<wgt id='3439'>0.78917E+02</wgt>
<wgt id='3440'>0.78654E+02</wgt>
<wgt id='3441'>0.78425E+02</wgt>
<wgt id='3442'>0.77499E+02</wgt>
<wgt id='3443'>0.78360E+02</wgt>
<wgt id='3444'>0.78681E+02</wgt>
<wgt id='3445'>0.78101E+02</wgt>
<wgt id='3446'>0.79645E+02</wgt>
<wgt id='3447'>0.78945E+02</wgt>
<wgt id='3448'>0.78929E+02</wgt>
<wgt id='3449'>0.79664E+02</wgt>
<wgt id='3450'>0.78761E+02</wgt>
<wgt id='3451'>0.78469E+02</wgt>
<wgt id='3452'>0.77925E+02</wgt>
<wgt id='3453'>0.77180E+02</wgt>
<wgt id='3454'>0.77810E+02</wgt>
<wgt id='3455'>0.79107E+02</wgt>
<wgt id='3456'>0.78581E+02</wgt>
<wgt id='3457'>0.80237E+02</wgt>
<wgt id='3458'>0.78862E+02</wgt>
<wgt id='3459'>0.78446E+02</wgt>
<wgt id='3460'>0.78484E+02</wgt>
<wgt id='3461'>0.77970E+02</wgt>
<wgt id='3462'>0.78443E+02</wgt>
<wgt id='3463'>0.77942E+02</wgt>
<wgt id='3464'>0.78570E+02</wgt>
<wgt id='3465'>0.78729E+02</wgt>
<wgt id='3466'>0.79100E+02</wgt>
<wgt id='3467'>0.77965E+02</wgt>
<wgt id='3468'>0.78654E+02</wgt>
<wgt id='3469'>0.78597E+02</wgt>
<wgt id='3470'>0.77977E+02</wgt>
<wgt id='3471'>0.77909E+02</wgt>
<wgt id='3472'>0.77608E+02</wgt>
<wgt id='3473'>0.78762E+02</wgt>
<wgt id='3474'>0.78645E+02</wgt>
<wgt id='3475'>0.78490E+02</wgt>
<wgt id='3476'>0.77811E+02</wgt>
<wgt id='3477'>0.78378E+02</wgt>
<wgt id='3478'>0.79580E+02</wgt>
<wgt id='3479'>0.78171E+02</wgt>
<wgt id='3480'>0.77667E+02</wgt>
<wgt id='3481'>0.77855E+02</wgt>
<wgt id='3482'>0.79045E+02</wgt>
<wgt id='3483'>0.77500E+02</wgt>
<wgt id='3484'>0.78602E+02</wgt>
<wgt id='3485'>0.77836E+02</wgt>
<wgt id='3486'>0.77454E+02</wgt>
<wgt id='3487'>0.79315E+02</wgt>
<wgt id='3488'>0.78331E+02</wgt>
<wgt id='3489'>0.77813E+02</wgt>
<wgt id='3490'>0.79738E+02</wgt>
<wgt id='3491'>0.77636E+02</wgt>
<wgt id='3492'>0.78542E+02</wgt>
<wgt id='3493'>0.77430E+02</wgt>
<wgt id='3494'>0.75822E+02</wgt>
<wgt id='3495'>0.78578E+02</wgt>
<wgt id='3496'>0.77610E+02</wgt>
<wgt id='3497'>0.78072E+02</wgt>
<wgt id='3498'>0.77899E+02</wgt>
<wgt id='3499'>0.78247E+02</wgt>
<wgt id='3500'>0.78177E+02</wgt>
</rwgt>
</event>
<event>
     13 322200  8.11039E+01  9.94342E+01 -1.00000E+00  1.22350E-01
       1    -1     0     0   503     0  0.000000000E+00  0.000000000E+00  1.929451249E+03  1.929451249E+03  0.000000000E+00  0.00000E+00  9.000E+00
      21    -1     0     0   502   503  0.000000000E+00  0.000000000E+00 -9.305589719E+01  9.305589719E+01  0.000000000E+00  0.00000E+00  9.000E+00
       6     2     1     2   502     0 -4.017967716E+01 -1.723428363E+02  1.047500785E+03  1.075911747E+03  1.703283122E+02  0.00000E+00  9.000E+00
      -6     2     1     2     0   512  1.387303297E+02  1.855688695E+02  2.044796098E+02  3.537817306E+02  1.722431199E+02  0.00000E+00  9.000E+00
       1     1     1     2   512     0 -9.855065258E+01 -1.322603320E+01  5.844149571E+02  5.928136683E+02  2.100000000E-01  0.00000E+00  9.000E+00
      24     2     3     3     0     0 -1.664035477E+01 -8.453071114E+00  3.600177249E+02  3.687536913E+02  7.757684419E+01  0.00000E+00  9.000E+00
       5     1     3     3   502     0 -2.353932239E+01 -1.638897652E+02  6.874830597E+02  7.071580557E+02  5.060000000E+00  0.00000E+00 -1.000E+00
     -24     2     4     4     0     0  2.806026422E+01  5.356415309E+01  2.258399420E+01  1.032129234E+02  8.053802731E+01  0.00000E+00  9.000E+00
      -5     1     4     4     0   512  1.106700655E+02  1.320047164E+02  1.818956156E+02  2.505688072E+02  5.060000000E+00  0.00000E+00  1.000E+00
     -11     1     6     6     0     0 -2.323708462E+01 -3.552594204E+01  1.233304336E+02  1.304317849E+02  5.100000000E-04  0.00000E+00  1.000E+00
      12     1     6     6     0     0  6.596729849E+00  2.707287093E+01  2.366872914E+02  2.383219064E+02  0.000000000E+00  0.00000E+00 -1.000E+00
      11     1     8     8     0     0  3.855327560E+01 -1.080254792E+00  2.747750827E+01  4.735541649E+01  5.100000000E-04  0.00000E+00 -1.000E+00
     -12     1     8     8     0     0 -1.049301138E+01  5.464440788E+01 -4.893514070E+00  5.585750693E+01  0.000000000E+00  0.00000E+00  1.000E+00
#rwgt            1           1   896.34108804898017               10       11611           0
<rwgt>
<wgt id='1001'>0.81104E+02</wgt>
<wgt id='1002'>0.70626E+02</wgt>
<wgt id='1003'>0.93378E+02</wgt>
<wgt id='1004'>0.76014E+02</wgt>
<wgt id='1005'>0.66763E+02</wgt>
<wgt id='1006'>0.86803E+02</wgt>
<wgt id='1007'>0.84814E+02</wgt>
<wgt id='1008'>0.72884E+02</wgt>
<wgt id='1009'>0.98868E+02</wgt>
<wgt id='2000'>0.81104E+02</wgt>
<wgt id='2001'>0.81057E+02</wgt>
<wgt id='2002'>0.81011E+02</wgt>
<wgt id='2003'>0.80963E+02</wgt>
<wgt id='2004'>0.81446E+02</wgt>
<wgt id='2005'>0.80717E+02</wgt>
<wgt id='2006'>0.81229E+02</wgt>
<wgt id='2007'>0.81174E+02</wgt>
<wgt id='2008'>0.81172E+02</wgt>
<wgt id='2009'>0.80921E+02</wgt>
<wgt id='2010'>0.80877E+02</wgt>
<wgt id='2011'>0.81090E+02</wgt>
<wgt id='2012'>0.81535E+02</wgt>
<wgt id='2013'>0.81028E+02</wgt>
<wgt id='2014'>0.81129E+02</wgt>
<wgt id='2015'>0.81414E+02</wgt>
<wgt id='2016'>0.81036E+02</wgt>
<wgt id='2017'>0.81162E+02</wgt>
<wgt id='2018'>0.80815E+02</wgt>
<wgt id='2019'>0.81184E+02</wgt>
<wgt id='2020'>0.80923E+02</wgt>
<wgt id='2021'>0.81186E+02</wgt>
<wgt id='2022'>0.81244E+02</wgt>
<wgt id='2023'>0.80791E+02</wgt>
<wgt id='2024'>0.81033E+02</wgt>
<wgt id='2025'>0.80950E+02</wgt>
<wgt id='2026'>0.80896E+02</wgt>
<wgt id='2027'>0.81509E+02</wgt>
<wgt id='2028'>0.80407E+02</wgt>
<wgt id='2029'>0.80795E+02</wgt>
<wgt id='2030'>0.81229E+02</wgt>
<wgt id='2031'>0.80731E+02</wgt>
<wgt id='2032'>0.80983E+02</wgt>
<wgt id='2033'>0.80764E+02</wgt>
<wgt id='2034'>0.80860E+02</wgt>
<wgt id='2035'>0.81395E+02</wgt>
<wgt id='2036'>0.81274E+02</wgt>
<wgt id='2037'>0.80978E+02</wgt>
<wgt id='2038'>0.80913E+02</wgt>
<wgt id='2039'>0.81195E+02</wgt>
<wgt id='2040'>0.81165E+02</wgt>
<wgt id='2041'>0.80671E+02</wgt>
<wgt id='2042'>0.81577E+02</wgt>
<wgt id='2043'>0.81360E+02</wgt>
<wgt id='2044'>0.81297E+02</wgt>
<wgt id='2045'>0.81441E+02</wgt>
<wgt id='2046'>0.81272E+02</wgt>
<wgt id='2047'>0.81230E+02</wgt>
<wgt id='2048'>0.80899E+02</wgt>
<wgt id='2049'>0.81105E+02</wgt>
<wgt id='2050'>0.81116E+02</wgt>
<wgt id='2051'>0.80967E+02</wgt>
<wgt id='2052'>0.81316E+02</wgt>
<wgt id='2053'>0.80998E+02</wgt>
<wgt id='2054'>0.81117E+02</wgt>
<wgt id='2055'>0.80970E+02</wgt>
<wgt id='2056'>0.81044E+02</wgt>
<wgt id='2057'>0.81195E+02</wgt>
<wgt id='2058'>0.81152E+02</wgt>
<wgt id='2059'>0.81087E+02</wgt>
<wgt id='2060'>0.80999E+02</wgt>
<wgt id='2061'>0.81102E+02</wgt>
<wgt id='2062'>0.81123E+02</wgt>
<wgt id='2063'>0.81168E+02</wgt>
<wgt id='2064'>0.81051E+02</wgt>
<wgt id='2065'>0.81146E+02</wgt>
<wgt id='2066'>0.81130E+02</wgt>
<wgt id='2067'>0.80982E+02</wgt>
<wgt id='2068'>0.81242E+02</wgt>
<wgt id='2069'>0.81091E+02</wgt>
<wgt id='2070'>0.81190E+02</wgt>
<wgt id='2071'>0.81047E+02</wgt>
<wgt id='2072'>0.81029E+02</wgt>
<wgt id='2073'>0.81143E+02</wgt>
<wgt id='2074'>0.80966E+02</wgt>
<wgt id='2075'>0.81100E+02</wgt>
<wgt id='2076'>0.81158E+02</wgt>
<wgt id='2077'>0.81160E+02</wgt>
<wgt id='2078'>0.81143E+02</wgt>
<wgt id='2079'>0.81088E+02</wgt>
<wgt id='2080'>0.81096E+02</wgt>
<wgt id='2081'>0.81016E+02</wgt>
<wgt id='2082'>0.81128E+02</wgt>
<wgt id='2083'>0.81255E+02</wgt>
<wgt id='2084'>0.81101E+02</wgt>
<wgt id='2085'>0.81146E+02</wgt>
<wgt id='2086'>0.81125E+02</wgt>
<wgt id='2087'>0.81142E+02</wgt>
<wgt id='2088'>0.81068E+02</wgt>
<wgt id='2089'>0.81025E+02</wgt>
<wgt id='2090'>0.81124E+02</wgt>
<wgt id='2091'>0.81119E+02</wgt>
<wgt id='2092'>0.81169E+02</wgt>
<wgt id='2093'>0.81045E+02</wgt>
<wgt id='2094'>0.81098E+02</wgt>
<wgt id='2095'>0.81157E+02</wgt>
<wgt id='2096'>0.81095E+02</wgt>
<wgt id='2097'>0.81149E+02</wgt>
<wgt id='2098'>0.81122E+02</wgt>
<wgt id='2099'>0.81135E+02</wgt>
<wgt id='2100'>0.81104E+02</wgt>
<wgt id='2101'>0.79608E+02</wgt>
<wgt id='2102'>0.83431E+02</wgt>
<wgt id='2200'>0.81457E+02</wgt>
<wgt id='2201'>0.72699E+02</wgt>
<wgt id='2202'>0.74465E+02</wgt>
<wgt id='2203'>0.76643E+02</wgt>
<wgt id='2204'>0.77897E+02</wgt>
<wgt id='2205'>0.80485E+02</wgt>
<wgt id='2206'>0.82809E+02</wgt>
<wgt id='2207'>0.84917E+02</wgt>
<wgt id='2208'>0.87590E+02</wgt>
<wgt id='2300'>0.87534E+02</wgt>
<wgt id='2301'>0.87553E+02</wgt>
<wgt id='2302'>0.87526E+02</wgt>
<wgt id='2303'>0.87573E+02</wgt>
<wgt id='2304'>0.87865E+02</wgt>
<wgt id='2305'>0.87616E+02</wgt>
<wgt id='2306'>0.87515E+02</wgt>
<wgt id='2307'>0.87688E+02</wgt>
<wgt id='2308'>0.87379E+02</wgt>
<wgt id='2309'>0.87630E+02</wgt>
<wgt id='2310'>0.87315E+02</wgt>
<wgt id='2311'>0.87452E+02</wgt>
<wgt id='2312'>0.87754E+02</wgt>
<wgt id='2313'>0.87627E+02</wgt>
<wgt id='2314'>0.87604E+02</wgt>
<wgt id='2315'>0.87454E+02</wgt>
<wgt id='2316'>0.87617E+02</wgt>
<wgt id='2317'>0.87619E+02</wgt>
<wgt id='2318'>0.87755E+02</wgt>
<wgt id='2319'>0.87456E+02</wgt>
<wgt id='2320'>0.87506E+02</wgt>
<wgt id='2321'>0.87371E+02</wgt>
<wgt id='2322'>0.87463E+02</wgt>
<wgt id='2323'>0.87333E+02</wgt>
<wgt id='2324'>0.87353E+02</wgt>
<wgt id='2325'>0.87651E+02</wgt>
<wgt id='2326'>0.87599E+02</wgt>
<wgt id='2327'>0.87575E+02</wgt>
<wgt id='2328'>0.87220E+02</wgt>
<wgt id='2329'>0.87453E+02</wgt>
<wgt id='2330'>0.88072E+02</wgt>
<wgt id='2331'>0.87669E+02</wgt>
<wgt id='2332'>0.87543E+02</wgt>
<wgt id='2333'>0.87574E+02</wgt>
<wgt id='2334'>0.87553E+02</wgt>
<wgt id='2335'>0.87237E+02</wgt>
<wgt id='2336'>0.87531E+02</wgt>
<wgt id='2337'>0.87560E+02</wgt>
<wgt id='2338'>0.87567E+02</wgt>
<wgt id='2339'>0.87297E+02</wgt>
<wgt id='2340'>0.87787E+02</wgt>
<wgt id='2341'>0.87691E+02</wgt>
<wgt id='2342'>0.87604E+02</wgt>
<wgt id='2343'>0.87669E+02</wgt>
<wgt id='2344'>0.87205E+02</wgt>
<wgt id='2345'>0.87178E+02</wgt>
<wgt id='2346'>0.87930E+02</wgt>
<wgt id='2347'>0.87667E+02</wgt>
<wgt id='2348'>0.87185E+02</wgt>
<wgt id='2349'>0.87547E+02</wgt>
<wgt id='2350'>0.86996E+02</wgt>
<wgt id='2351'>0.87821E+02</wgt>
<wgt id='2352'>0.87326E+02</wgt>
<wgt id='2353'>0.87593E+02</wgt>
<wgt id='2354'>0.87615E+02</wgt>
<wgt id='2355'>0.87548E+02</wgt>
<wgt id='2356'>0.87343E+02</wgt>
<wgt id='2357'>0.87684E+02</wgt>
<wgt id='2358'>0.87224E+02</wgt>
<wgt id='2359'>0.87462E+02</wgt>
<wgt id='2360'>0.87458E+02</wgt>
<wgt id='2361'>0.87448E+02</wgt>
<wgt id='2362'>0.87646E+02</wgt>
<wgt id='2363'>0.87340E+02</wgt>
<wgt id='2364'>0.87742E+02</wgt>
<wgt id='2365'>0.87382E+02</wgt>
<wgt id='2366'>0.87452E+02</wgt>
<wgt id='2367'>0.87377E+02</wgt>
<wgt id='2368'>0.87459E+02</wgt>
<wgt id='2369'>0.87448E+02</wgt>
<wgt id='2370'>0.87373E+02</wgt>
<wgt id='2371'>0.87571E+02</wgt>
<wgt id='2372'>0.87575E+02</wgt>
<wgt id='2373'>0.87537E+02</wgt>
<wgt id='2374'>0.87794E+02</wgt>
<wgt id='2375'>0.87598E+02</wgt>
<wgt id='2376'>0.87583E+02</wgt>
<wgt id='2377'>0.87583E+02</wgt>
<wgt id='2378'>0.87675E+02</wgt>
<wgt id='2379'>0.87324E+02</wgt>
<wgt id='2380'>0.87393E+02</wgt>
<wgt id='2381'>0.87407E+02</wgt>
<wgt id='2382'>0.87304E+02</wgt>
<wgt id='2383'>0.87623E+02</wgt>
<wgt id='2384'>0.87512E+02</wgt>
<wgt id='2385'>0.87576E+02</wgt>
<wgt id='2386'>0.87463E+02</wgt>
<wgt id='2387'>0.87386E+02</wgt>
<wgt id='2388'>0.87503E+02</wgt>
<wgt id='2389'>0.87536E+02</wgt>
<wgt id='2390'>0.87455E+02</wgt>
<wgt id='2391'>0.87484E+02</wgt>
<wgt id='2392'>0.87523E+02</wgt>
<wgt id='2393'>0.87611E+02</wgt>
<wgt id='2394'>0.87579E+02</wgt>
<wgt id='2395'>0.87547E+02</wgt>
<wgt id='2396'>0.87502E+02</wgt>
<wgt id='2397'>0.87543E+02</wgt>
<wgt id='2398'>0.87553E+02</wgt>
<wgt id='2399'>0.87599E+02</wgt>
<wgt id='2400'>0.87556E+02</wgt>
<wgt id='2401'>0.86079E+02</wgt>
<wgt id='2402'>0.89305E+02</wgt>
<wgt id='2500'>0.85035E+02</wgt>
<wgt id='2501'>0.90117E+02</wgt>
<wgt id='2600'>0.81359E+02</wgt>
<wgt id='2601'>0.81183E+02</wgt>
<wgt id='2602'>0.81309E+02</wgt>
<wgt id='2603'>0.81325E+02</wgt>
<wgt id='2604'>0.81403E+02</wgt>
<wgt id='2605'>0.81210E+02</wgt>
<wgt id='2606'>0.81383E+02</wgt>
<wgt id='2607'>0.81524E+02</wgt>
<wgt id='2608'>0.81421E+02</wgt>
<wgt id='2609'>0.81249E+02</wgt>
<wgt id='2610'>0.81278E+02</wgt>
<wgt id='2611'>0.81344E+02</wgt>
<wgt id='2612'>0.81433E+02</wgt>
<wgt id='2613'>0.81404E+02</wgt>
<wgt id='2614'>0.81268E+02</wgt>
<wgt id='2615'>0.81234E+02</wgt>
<wgt id='2616'>0.81457E+02</wgt>
<wgt id='2617'>0.81181E+02</wgt>
<wgt id='2618'>0.81501E+02</wgt>
<wgt id='2619'>0.81448E+02</wgt>
<wgt id='2620'>0.81117E+02</wgt>
<wgt id='2621'>0.81485E+02</wgt>
<wgt id='2622'>0.81521E+02</wgt>
<wgt id='2623'>0.81308E+02</wgt>
<wgt id='2624'>0.81234E+02</wgt>
<wgt id='2625'>0.81605E+02</wgt>
<wgt id='2626'>0.81523E+02</wgt>
<wgt id='2627'>0.81465E+02</wgt>
<wgt id='2628'>0.81264E+02</wgt>
<wgt id='2629'>0.81531E+02</wgt>
<wgt id='2630'>0.81644E+02</wgt>
<wgt id='2631'>0.81512E+02</wgt>
<wgt id='2632'>0.80949E+02</wgt>
<wgt id='2633'>0.81350E+02</wgt>
<wgt id='2634'>0.81502E+02</wgt>
<wgt id='2635'>0.81086E+02</wgt>
<wgt id='2636'>0.81397E+02</wgt>
<wgt id='2637'>0.81258E+02</wgt>
<wgt id='2638'>0.81347E+02</wgt>
<wgt id='2639'>0.81336E+02</wgt>
<wgt id='2640'>0.81443E+02</wgt>
<wgt id='2641'>0.81251E+02</wgt>
<wgt id='2642'>0.81362E+02</wgt>
<wgt id='2643'>0.81373E+02</wgt>
<wgt id='2644'>0.81329E+02</wgt>
<wgt id='2645'>0.81266E+02</wgt>
<wgt id='2646'>0.81243E+02</wgt>
<wgt id='2647'>0.81397E+02</wgt>
<wgt id='2648'>0.81378E+02</wgt>
<wgt id='2649'>0.81411E+02</wgt>
<wgt id='2650'>0.81370E+02</wgt>
<wgt id='2651'>0.79954E+02</wgt>
<wgt id='2652'>0.82440E+02</wgt>
<wgt id='2700'>0.78604E+02</wgt>
<wgt id='2701'>0.79954E+02</wgt>
<wgt id='2702'>0.80605E+02</wgt>
<wgt id='2703'>0.82020E+02</wgt>
<wgt id='2704'>0.82440E+02</wgt>
<wgt id='2705'>0.83947E+02</wgt>
<wgt id='2800'>0.84207E+02</wgt>
<wgt id='4000'>0.87263E+02</wgt>
<wgt id='4001'>0.87489E+02</wgt>
<wgt id='4002'>0.87385E+02</wgt>
<wgt id='4003'>0.85439E+02</wgt>
<wgt id='4004'>0.89715E+02</wgt>
<wgt id='4005'>0.87865E+02</wgt>
<wgt id='4006'>0.86832E+02</wgt>
<wgt id='4007'>0.87132E+02</wgt>
<wgt id='4008'>0.87457E+02</wgt>
<wgt id='4009'>0.86817E+02</wgt>
<wgt id='4010'>0.87192E+02</wgt>
<wgt id='4011'>0.87731E+02</wgt>
<wgt id='4012'>0.86425E+02</wgt>
<wgt id='4013'>0.87492E+02</wgt>
<wgt id='4014'>0.87295E+02</wgt>
<wgt id='4015'>0.88441E+02</wgt>
<wgt id='4016'>0.88017E+02</wgt>
<wgt id='4017'>0.87491E+02</wgt>
<wgt id='4018'>0.87058E+02</wgt>
<wgt id='4019'>0.86693E+02</wgt>
<wgt id='4020'>0.88450E+02</wgt>
<wgt id='4021'>0.87804E+02</wgt>
<wgt id='4022'>0.86341E+02</wgt>
<wgt id='4023'>0.87923E+02</wgt>
<wgt id='4024'>0.87650E+02</wgt>
<wgt id='4025'>0.87033E+02</wgt>
<wgt id='4026'>0.87900E+02</wgt>
<wgt id='4027'>0.89005E+02</wgt>
<wgt id='4028'>0.85866E+02</wgt>
<wgt id='4029'>0.88756E+02</wgt>
<wgt id='4030'>0.86956E+02</wgt>
<wgt id='4031'>0.87495E+02</wgt>
<wgt id='4032'>0.89100E+02</wgt>
<wgt id='4033'>0.88214E+02</wgt>
<wgt id='4034'>0.86936E+02</wgt>
<wgt id='4035'>0.87097E+02</wgt>
<wgt id='4036'>0.87408E+02</wgt>
<wgt id='4037'>0.90628E+02</wgt>
<wgt id='4038'>0.84498E+02</wgt>
<wgt id='4039'>0.89056E+02</wgt>
<wgt id='4040'>0.85774E+02</wgt>
<wgt id='4041'>0.87729E+02</wgt>
<wgt id='4042'>0.86842E+02</wgt>
<wgt id='4043'>0.86772E+02</wgt>
<wgt id='4044'>0.87313E+02</wgt>
<wgt id='4045'>0.86758E+02</wgt>
<wgt id='4046'>0.87657E+02</wgt>
<wgt id='4047'>0.88139E+02</wgt>
<wgt id='4048'>0.87513E+02</wgt>
<wgt id='4049'>0.87115E+02</wgt>
<wgt id='4050'>0.87642E+02</wgt>
<wgt id='4051'>0.86689E+02</wgt>
<wgt id='4052'>0.88038E+02</wgt>
<wgt id='4053'>0.87655E+02</wgt>
<wgt id='4054'>0.86433E+02</wgt>
<wgt id='4055'>0.87943E+02</wgt>
<wgt id='4056'>0.86521E+02</wgt>
<wgt id='4057'>0.86457E+02</wgt>
<wgt id='4058'>0.87797E+02</wgt>
<wgt id='4100'>0.87291E+02</wgt>
<wgt id='4101'>0.87222E+02</wgt>
<wgt id='4102'>0.87388E+02</wgt>
<wgt id='4103'>0.87567E+02</wgt>
<wgt id='4200'>0.84801E+02</wgt>
<wgt id='4201'>0.84811E+02</wgt>
<wgt id='4202'>0.85078E+02</wgt>
<wgt id='4203'>0.84518E+02</wgt>
<wgt id='4204'>0.84775E+02</wgt>
<wgt id='4205'>0.84876E+02</wgt>
<wgt id='4206'>0.84926E+02</wgt>
<wgt id='4207'>0.85554E+02</wgt>
<wgt id='4208'>0.84643E+02</wgt>
<wgt id='4209'>0.84360E+02</wgt>
<wgt id='4210'>0.85116E+02</wgt>
<wgt id='4211'>0.84981E+02</wgt>
<wgt id='4212'>0.84663E+02</wgt>
<wgt id='4213'>0.84650E+02</wgt>
<wgt id='4214'>0.85053E+02</wgt>
<wgt id='4215'>0.85044E+02</wgt>
<wgt id='4216'>0.84761E+02</wgt>
<wgt id='4217'>0.84949E+02</wgt>
<wgt id='4218'>0.84572E+02</wgt>
<wgt id='4219'>0.85212E+02</wgt>
<wgt id='4220'>0.84552E+02</wgt>
<wgt id='4221'>0.84804E+02</wgt>
<wgt id='4222'>0.85110E+02</wgt>
<wgt id='4223'>0.83565E+02</wgt>
<wgt id='4224'>0.84569E+02</wgt>
<wgt id='4225'>0.84148E+02</wgt>
<wgt id='4226'>0.86010E+02</wgt>
<wgt id='4227'>0.85702E+02</wgt>
<wgt id='4228'>0.84055E+02</wgt>
<wgt id='4229'>0.83667E+02</wgt>
<wgt id='4230'>0.86026E+02</wgt>
<wgt id='4231'>0.85688E+02</wgt>
<wgt id='4232'>0.83508E+02</wgt>
<wgt id='4233'>0.85501E+02</wgt>
<wgt id='4234'>0.83406E+02</wgt>
<wgt id='4235'>0.86298E+02</wgt>
<wgt id='4236'>0.83308E+02</wgt>
<wgt id='4237'>0.86626E+02</wgt>
<wgt id='4238'>0.82191E+02</wgt>
<wgt id='4239'>0.85213E+02</wgt>
<wgt id='4240'>0.84925E+02</wgt>
<wgt id='4241'>0.85037E+02</wgt>
<wgt id='4242'>0.84575E+02</wgt>
<wgt id='4243'>0.85620E+02</wgt>
<wgt id='4244'>0.83992E+02</wgt>
<wgt id='4245'>0.85072E+02</wgt>
<wgt id='4246'>0.83949E+02</wgt>
<wgt id='4247'>0.83530E+02</wgt>
<wgt id='4248'>0.85623E+02</wgt>
<wgt id='4249'>0.85689E+02</wgt>
<wgt id='4250'>0.83745E+02</wgt>
<wgt id='4251'>0.87208E+02</wgt>
<wgt id='4252'>0.83305E+02</wgt>
<wgt id='4253'>0.86606E+02</wgt>
<wgt id='4254'>0.82745E+02</wgt>
<wgt id='4255'>0.86525E+02</wgt>
<wgt id='4256'>0.84163E+02</wgt>
<wgt id='4257'>0.83282E+02</wgt>
<wgt id='4258'>0.85239E+02</wgt>
<wgt id='4300'>0.86041E+02</wgt>
<wgt id='4301'>0.87086E+02</wgt>
<wgt id='5000'>0.84926E+02</wgt>
<wgt id='5001'>0.84964E+02</wgt>
<wgt id='5002'>0.84877E+02</wgt>
<wgt id='5003'>0.84948E+02</wgt>
<wgt id='5004'>0.84906E+02</wgt>
<wgt id='5005'>0.84920E+02</wgt>
<wgt id='5006'>0.84935E+02</wgt>
<wgt id='5007'>0.85021E+02</wgt>
<wgt id='5008'>0.84849E+02</wgt>
<wgt id='5009'>0.85023E+02</wgt>
<wgt id='5010'>0.84826E+02</wgt>
<wgt id='5011'>0.85232E+02</wgt>
<wgt id='5012'>0.84631E+02</wgt>
<wgt id='5013'>0.85092E+02</wgt>
<wgt id='5014'>0.84808E+02</wgt>
<wgt id='5015'>0.84510E+02</wgt>
<wgt id='5016'>0.84510E+02</wgt>
<wgt id='5017'>0.85188E+02</wgt>
<wgt id='5018'>0.84750E+02</wgt>
<wgt id='5019'>0.85227E+02</wgt>
<wgt id='5020'>0.84513E+02</wgt>
<wgt id='5021'>0.85013E+02</wgt>
<wgt id='5022'>0.84788E+02</wgt>
<wgt id='5023'>0.84895E+02</wgt>
<wgt id='5024'>0.84998E+02</wgt>
<wgt id='5025'>0.84773E+02</wgt>
<wgt id='5026'>0.85092E+02</wgt>
<wgt id='5027'>0.85001E+02</wgt>
<wgt id='5028'>0.84724E+02</wgt>
<wgt id='5029'>0.86093E+02</wgt>
<wgt id='5030'>0.84272E+02</wgt>
<wgt id='5031'>0.84193E+02</wgt>
<wgt id='5032'>0.87182E+02</wgt>
<wgt id='5033'>0.84804E+02</wgt>
<wgt id='5034'>0.85056E+02</wgt>
<wgt id='5035'>0.84940E+02</wgt>
<wgt id='5036'>0.84908E+02</wgt>
<wgt id='5037'>0.84560E+02</wgt>
<wgt id='5038'>0.85132E+02</wgt>
<wgt id='5039'>0.85102E+02</wgt>
<wgt id='5040'>0.84489E+02</wgt>
<wgt id='5041'>0.84378E+02</wgt>
<wgt id='5042'>0.85551E+02</wgt>
<wgt id='5043'>0.85121E+02</wgt>
<wgt id='5044'>0.84774E+02</wgt>
<wgt id='5045'>0.85643E+02</wgt>
<wgt id='5046'>0.83529E+02</wgt>
<wgt id='5047'>0.85077E+02</wgt>
<wgt id='5048'>0.84269E+02</wgt>
<wgt id='5049'>0.84766E+02</wgt>
<wgt id='5050'>0.85285E+02</wgt>
<wgt id='5051'>0.85268E+02</wgt>
<wgt id='5052'>0.84692E+02</wgt>
<wgt id='5053'>0.85393E+02</wgt>
<wgt id='5054'>0.84985E+02</wgt>
<wgt id='5055'>0.84938E+02</wgt>
<wgt id='5056'>0.85038E+02</wgt>
<wgt id='5057'>0.84450E+02</wgt>
<wgt id='5058'>0.85260E+02</wgt>
<wgt id='5059'>0.84675E+02</wgt>
<wgt id='5060'>0.85069E+02</wgt>
<wgt id='5061'>0.85085E+02</wgt>
<wgt id='5062'>0.85331E+02</wgt>
<wgt id='5063'>0.85110E+02</wgt>
<wgt id='5064'>0.85191E+02</wgt>
<wgt id='5100'>0.84926E+02</wgt>
<wgt id='5101'>0.84923E+02</wgt>
<wgt id='6000'>0.85037E+02</wgt>
<wgt id='6001'>0.84646E+02</wgt>
<wgt id='6002'>0.83864E+02</wgt>
<wgt id='6003'>0.84495E+02</wgt>
<wgt id='6004'>0.85754E+02</wgt>
<wgt id='6005'>0.84496E+02</wgt>
<wgt id='6006'>0.85221E+02</wgt>
<wgt id='6007'>0.84136E+02</wgt>
<wgt id='6008'>0.85260E+02</wgt>
<wgt id='6009'>0.85047E+02</wgt>
<wgt id='6010'>0.85642E+02</wgt>
<wgt id='6011'>0.84992E+02</wgt>
<wgt id='6012'>0.85275E+02</wgt>
<wgt id='6013'>0.84597E+02</wgt>
<wgt id='6014'>0.84476E+02</wgt>
<wgt id='6015'>0.84065E+02</wgt>
<wgt id='6016'>0.85613E+02</wgt>
<wgt id='6017'>0.84629E+02</wgt>
<wgt id='6018'>0.84193E+02</wgt>
<wgt id='6019'>0.85512E+02</wgt>
<wgt id='6020'>0.85205E+02</wgt>
<wgt id='6021'>0.85040E+02</wgt>
<wgt id='6022'>0.85780E+02</wgt>
<wgt id='6023'>0.85019E+02</wgt>
<wgt id='6024'>0.85230E+02</wgt>
<wgt id='6025'>0.85606E+02</wgt>
<wgt id='6026'>0.84735E+02</wgt>
<wgt id='6027'>0.85196E+02</wgt>
<wgt id='6028'>0.84309E+02</wgt>
<wgt id='6029'>0.84721E+02</wgt>
<wgt id='6030'>0.84620E+02</wgt>
<wgt id='6031'>0.84782E+02</wgt>
<wgt id='6032'>0.85077E+02</wgt>
<wgt id='6033'>0.84970E+02</wgt>
<wgt id='6034'>0.85421E+02</wgt>
<wgt id='6035'>0.85109E+02</wgt>
<wgt id='6036'>0.85664E+02</wgt>
<wgt id='6037'>0.84983E+02</wgt>
<wgt id='6038'>0.84837E+02</wgt>
<wgt id='6039'>0.85450E+02</wgt>
<wgt id='6040'>0.85119E+02</wgt>
<wgt id='6041'>0.83319E+02</wgt>
<wgt id='6042'>0.85714E+02</wgt>
<wgt id='7000'>0.79605E+02</wgt>
<wgt id='7001'>0.78592E+02</wgt>
<wgt id='7002'>0.78755E+02</wgt>
<wgt id='7003'>0.78650E+02</wgt>
<wgt id='7004'>0.78697E+02</wgt>
<wgt id='7005'>0.78689E+02</wgt>
<wgt id='7006'>0.78659E+02</wgt>
<wgt id='7007'>0.79105E+02</wgt>
<wgt id='7008'>0.78254E+02</wgt>
<wgt id='7009'>0.78324E+02</wgt>
<wgt id='7010'>0.79037E+02</wgt>
<wgt id='7011'>0.78912E+02</wgt>
<wgt id='7012'>0.78446E+02</wgt>
<wgt id='7013'>0.78719E+02</wgt>
<wgt id='7014'>0.78623E+02</wgt>
<wgt id='7015'>0.78866E+02</wgt>
<wgt id='7016'>0.78314E+02</wgt>
<wgt id='7017'>0.78503E+02</wgt>
<wgt id='7018'>0.78860E+02</wgt>
<wgt id='7019'>0.79289E+02</wgt>
<wgt id='7020'>0.78085E+02</wgt>
<wgt id='7021'>0.80209E+02</wgt>
<wgt id='7022'>0.77262E+02</wgt>
<wgt id='7023'>0.77334E+02</wgt>
<wgt id='7024'>0.80018E+02</wgt>
<wgt id='7025'>0.77004E+02</wgt>
<wgt id='7026'>0.80301E+02</wgt>
<wgt id='7027'>0.77900E+02</wgt>
<wgt id='7028'>0.79531E+02</wgt>
<wgt id='8000'>0.81264E+02</wgt>
<wgt id='8001'>0.81260E+02</wgt>
<wgt id='8002'>0.81288E+02</wgt>
<wgt id='8003'>0.81263E+02</wgt>
<wgt id='8004'>0.81262E+02</wgt>
<wgt id='8005'>0.81115E+02</wgt>
<wgt id='8006'>0.81383E+02</wgt>
<wgt id='8007'>0.81461E+02</wgt>
<wgt id='8008'>0.81418E+02</wgt>
<wgt id='8009'>0.81577E+02</wgt>
<wgt id='8010'>0.81161E+02</wgt>
<wgt id='8011'>0.81317E+02</wgt>
<wgt id='8012'>0.80981E+02</wgt>
<wgt id='8013'>0.81092E+02</wgt>
<wgt id='8014'>0.81494E+02</wgt>
<wgt id='8015'>0.81224E+02</wgt>
<wgt id='8016'>0.81405E+02</wgt>
<wgt id='8017'>0.81442E+02</wgt>
<wgt id='8018'>0.81636E+02</wgt>
<wgt id='8019'>0.80962E+02</wgt>
<wgt id='8020'>0.81775E+02</wgt>
<wgt id='8021'>0.81060E+02</wgt>
<wgt id='8022'>0.82181E+02</wgt>
<wgt id='8023'>0.80844E+02</wgt>
<wgt id='8024'>0.80476E+02</wgt>
<wgt id='8025'>0.80574E+02</wgt>
<wgt id='8026'>0.81189E+02</wgt>
<wgt id='8027'>0.81491E+02</wgt>
<wgt id='8028'>0.81248E+02</wgt>
<wgt id='8029'>0.84004E+02</wgt>
<wgt id='3000'>0.81104E+02</wgt>
<wgt id='3001'>0.83633E+02</wgt>
<wgt id='3002'>0.80067E+02</wgt>
<wgt id='3003'>0.79962E+02</wgt>
<wgt id='3004'>0.81779E+02</wgt>
<wgt id='3005'>0.80761E+02</wgt>
<wgt id='3006'>0.83402E+02</wgt>
<wgt id='3007'>0.79512E+02</wgt>
<wgt id='3008'>0.78773E+02</wgt>
<wgt id='3009'>0.80336E+02</wgt>
<wgt id='3010'>0.86954E+02</wgt>
<wgt id='3011'>0.82963E+02</wgt>
<wgt id='3012'>0.80737E+02</wgt>
<wgt id='3013'>0.82885E+02</wgt>
<wgt id='3014'>0.80260E+02</wgt>
<wgt id='3015'>0.81937E+02</wgt>
<wgt id='3016'>0.80773E+02</wgt>
<wgt id='3017'>0.81404E+02</wgt>
<wgt id='3018'>0.78739E+02</wgt>
<wgt id='3019'>0.79438E+02</wgt>
<wgt id='3020'>0.81226E+02</wgt>
<wgt id='3021'>0.80828E+02</wgt>
<wgt id='3022'>0.78607E+02</wgt>
<wgt id='3023'>0.78867E+02</wgt>
<wgt id='3024'>0.81338E+02</wgt>
<wgt id='3025'>0.78755E+02</wgt>
<wgt id='3026'>0.80672E+02</wgt>
<wgt id='3027'>0.83694E+02</wgt>
<wgt id='3028'>0.78662E+02</wgt>
<wgt id='3029'>0.81055E+02</wgt>
<wgt id='3030'>0.81505E+02</wgt>
<wgt id='3031'>0.81309E+02</wgt>
<wgt id='3032'>0.83734E+02</wgt>
<wgt id='3033'>0.79827E+02</wgt>
<wgt id='3034'>0.81074E+02</wgt>
<wgt id='3035'>0.83122E+02</wgt>
<wgt id='3036'>0.82051E+02</wgt>
<wgt id='3037'>0.81008E+02</wgt>
<wgt id='3038'>0.81329E+02</wgt>
<wgt id='3039'>0.83425E+02</wgt>
<wgt id='3040'>0.80253E+02</wgt>
<wgt id='3041'>0.79178E+02</wgt>
<wgt id='3042'>0.80665E+02</wgt>
<wgt id='3043'>0.82761E+02</wgt>
<wgt id='3044'>0.81705E+02</wgt>
<wgt id='3045'>0.80979E+02</wgt>
<wgt id='3046'>0.81210E+02</wgt>
<wgt id='3047'>0.81614E+02</wgt>
<wgt id='3048'>0.79720E+02</wgt>
<wgt id='3049'>0.82887E+02</wgt>
<wgt id='3050'>0.82825E+02</wgt>
<wgt id='3051'>0.82161E+02</wgt>
<wgt id='3052'>0.79838E+02</wgt>
<wgt id='3053'>0.82675E+02</wgt>
<wgt id='3054'>0.77361E+02</wgt>
<wgt id='3055'>0.79817E+02</wgt>
<wgt id='3056'>0.80281E+02</wgt>
<wgt id='3057'>0.81047E+02</wgt>
<wgt id='3058'>0.82511E+02</wgt>
<wgt id='3059'>0.78878E+02</wgt>
<wgt id='3060'>0.80872E+02</wgt>
<wgt id='3061'>0.82982E+02</wgt>
<wgt id='3062'>0.78410E+02</wgt>
<wgt id='3063'>0.80950E+02</wgt>
<wgt id='3064'>0.80665E+02</wgt>
<wgt id='3065'>0.79051E+02</wgt>
<wgt id='3066'>0.80007E+02</wgt>
<wgt id='3067'>0.79515E+02</wgt>
<wgt id='3068'>0.81657E+02</wgt>
<wgt id='3069'>0.80933E+02</wgt>
<wgt id='3070'>0.83390E+02</wgt>
<wgt id='3071'>0.82476E+02</wgt>
<wgt id='3072'>0.81653E+02</wgt>
<wgt id='3073'>0.79842E+02</wgt>
<wgt id='3074'>0.80747E+02</wgt>
<wgt id='3075'>0.81625E+02</wgt>
<wgt id='3076'>0.83614E+02</wgt>
<wgt id='3077'>0.81920E+02</wgt>
<wgt id='3078'>0.81645E+02</wgt>
<wgt id='3079'>0.81849E+02</wgt>
<wgt id='3080'>0.84125E+02</wgt>
<wgt id='3081'>0.81551E+02</wgt>
<wgt id='3082'>0.80773E+02</wgt>
<wgt id='3083'>0.81731E+02</wgt>
<wgt id='3084'>0.79994E+02</wgt>
<wgt id='3085'>0.81903E+02</wgt>
<wgt id='3086'>0.82347E+02</wgt>
<wgt id='3087'>0.80437E+02</wgt>
<wgt id='3088'>0.80488E+02</wgt>
<wgt id='3089'>0.78053E+02</wgt>
<wgt id='3090'>0.79495E+02</wgt>
<wgt id='3091'>0.78759E+02</wgt>
<wgt id='3092'>0.83948E+02</wgt>
<wgt id='3093'>0.81056E+02</wgt>
<wgt id='3094'>0.81048E+02</wgt>
<wgt id='3095'>0.81409E+02</wgt>
<wgt id='3096'>0.79656E+02</wgt>
<wgt id='3097'>0.84392E+02</wgt>
<wgt id='3098'>0.81101E+02</wgt>
<wgt id='3099'>0.79174E+02</wgt>
<wgt id='3100'>0.79563E+02</wgt>
<wgt id='3200'>0.81540E+02</wgt>
<wgt id='3201'>0.81423E+02</wgt>
<wgt id='3202'>0.80781E+02</wgt>
<wgt id='3203'>0.82391E+02</wgt>
<wgt id='3204'>0.82227E+02</wgt>
<wgt id='3205'>0.82197E+02</wgt>
<wgt id='3206'>0.81560E+02</wgt>
<wgt id='3207'>0.81359E+02</wgt>
<wgt id='3208'>0.81637E+02</wgt>
<wgt id='3209'>0.81765E+02</wgt>
<wgt id='3210'>0.81290E+02</wgt>
<wgt id='3211'>0.80872E+02</wgt>
<wgt id='3212'>0.81504E+02</wgt>
<wgt id='3213'>0.81662E+02</wgt>
<wgt id='3214'>0.80907E+02</wgt>
<wgt id='3215'>0.80754E+02</wgt>
<wgt id='3216'>0.82733E+02</wgt>
<wgt id='3217'>0.81402E+02</wgt>
<wgt id='3218'>0.82324E+02</wgt>
<wgt id='3219'>0.80609E+02</wgt>
<wgt id='3220'>0.81111E+02</wgt>
<wgt id='3221'>0.81329E+02</wgt>
<wgt id='3222'>0.82404E+02</wgt>
<wgt id='3223'>0.81111E+02</wgt>
<wgt id='3224'>0.80924E+02</wgt>
<wgt id='3225'>0.81760E+02</wgt>
<wgt id='3226'>0.81825E+02</wgt>
<wgt id='3227'>0.81522E+02</wgt>
<wgt id='3228'>0.81271E+02</wgt>
<wgt id='3229'>0.82553E+02</wgt>
<wgt id='3230'>0.82202E+02</wgt>
<wgt id='3231'>0.81563E+02</wgt>
<wgt id='3232'>0.82060E+02</wgt>
<wgt id='3233'>0.81175E+02</wgt>
<wgt id='3234'>0.80065E+02</wgt>
<wgt id='3235'>0.81143E+02</wgt>
<wgt id='3236'>0.82612E+02</wgt>
<wgt id='3237'>0.81690E+02</wgt>
<wgt id='3238'>0.83022E+02</wgt>
<wgt id='3239'>0.80149E+02</wgt>
<wgt id='3240'>0.79855E+02</wgt>
<wgt id='3241'>0.82152E+02</wgt>
<wgt id='3242'>0.82454E+02</wgt>
<wgt id='3243'>0.82683E+02</wgt>
<wgt id='3244'>0.82270E+02</wgt>
<wgt id='3245'>0.83061E+02</wgt>
<wgt id='3246'>0.80492E+02</wgt>
<wgt id='3247'>0.79783E+02</wgt>
<wgt id='3248'>0.80971E+02</wgt>
<wgt id='3249'>0.81419E+02</wgt>
<wgt id='3250'>0.80465E+02</wgt>
<wgt id='3251'>0.81018E+02</wgt>
<wgt id='3252'>0.83039E+02</wgt>
<wgt id='3253'>0.83295E+02</wgt>
<wgt id='3254'>0.81414E+02</wgt>
<wgt id='3255'>0.80065E+02</wgt>
<wgt id='3256'>0.80549E+02</wgt>
<wgt id='3257'>0.80644E+02</wgt>
<wgt id='3258'>0.80490E+02</wgt>
<wgt id='3259'>0.80655E+02</wgt>
<wgt id='3260'>0.82363E+02</wgt>
<wgt id='3261'>0.81062E+02</wgt>
<wgt id='3262'>0.82589E+02</wgt>
<wgt id='3263'>0.81167E+02</wgt>
<wgt id='3264'>0.83329E+02</wgt>
<wgt id='3265'>0.82751E+02</wgt>
<wgt id='3266'>0.81690E+02</wgt>
<wgt id='3267'>0.81774E+02</wgt>
<wgt id='3268'>0.79682E+02</wgt>
<wgt id='3269'>0.80641E+02</wgt>
<wgt id='3270'>0.82772E+02</wgt>
<wgt id='3271'>0.80589E+02</wgt>
<wgt id='3272'>0.81848E+02</wgt>
<wgt id='3273'>0.81467E+02</wgt>
<wgt id='3274'>0.82626E+02</wgt>
<wgt id='3275'>0.82672E+02</wgt>
<wgt id='3276'>0.80436E+02</wgt>
<wgt id='3277'>0.81322E+02</wgt>
<wgt id='3278'>0.82578E+02</wgt>
<wgt id='3279'>0.81977E+02</wgt>
<wgt id='3280'>0.80983E+02</wgt>
<wgt id='3281'>0.82604E+02</wgt>
<wgt id='3282'>0.81100E+02</wgt>
<wgt id='3283'>0.82488E+02</wgt>
<wgt id='3284'>0.80236E+02</wgt>
<wgt id='3285'>0.81872E+02</wgt>
<wgt id='3286'>0.80569E+02</wgt>
<wgt id='3287'>0.82983E+02</wgt>
<wgt id='3288'>0.80297E+02</wgt>
<wgt id='3289'>0.82067E+02</wgt>
<wgt id='3290'>0.80899E+02</wgt>
<wgt id='3291'>0.81343E+02</wgt>
<wgt id='3292'>0.80978E+02</wgt>
<wgt id='3293'>0.81533E+02</wgt>
<wgt id='3294'>0.81858E+02</wgt>
<wgt id='3295'>0.80601E+02</wgt>
<wgt id='3296'>0.82333E+02</wgt>
<wgt id='3297'>0.81890E+02</wgt>
<wgt id='3298'>0.79992E+02</wgt>
<wgt id='3299'>0.81917E+02</wgt>
<wgt id='3300'>0.82303E+02</wgt>
<wgt id='3301'>0.79954E+02</wgt>
<wgt id='3302'>0.82440E+02</wgt>
<wgt id='3400'>0.81173E+02</wgt>
<wgt id='3401'>0.82691E+02</wgt>
<wgt id='3402'>0.79290E+02</wgt>
<wgt id='3403'>0.82150E+02</wgt>
<wgt id='3404'>0.82406E+02</wgt>
<wgt id='3405'>0.82736E+02</wgt>
<wgt id='3406'>0.81200E+02</wgt>
<wgt id='3407'>0.80364E+02</wgt>
<wgt id='3408'>0.81500E+02</wgt>
<wgt id='3409'>0.80393E+02</wgt>
<wgt id='3410'>0.82066E+02</wgt>
<wgt id='3411'>0.81860E+02</wgt>
<wgt id='3412'>0.81304E+02</wgt>
<wgt id='3413'>0.80909E+02</wgt>
<wgt id='3414'>0.81642E+02</wgt>
<wgt id='3415'>0.81376E+02</wgt>
<wgt id='3416'>0.80945E+02</wgt>
<wgt id='3417'>0.81577E+02</wgt>
<wgt id='3418'>0.80785E+02</wgt>
<wgt id='3419'>0.80997E+02</wgt>
<wgt id='3420'>0.80701E+02</wgt>
<wgt id='3421'>0.80588E+02</wgt>
<wgt id='3422'>0.80225E+02</wgt>
<wgt id='3423'>0.84253E+02</wgt>
<wgt id='3424'>0.81636E+02</wgt>
<wgt id='3425'>0.80583E+02</wgt>
<wgt id='3426'>0.80911E+02</wgt>
<wgt id='3427'>0.80821E+02</wgt>
<wgt id='3428'>0.80475E+02</wgt>
<wgt id='3429'>0.79704E+02</wgt>
<wgt id='3430'>0.81347E+02</wgt>
<wgt id='3431'>0.81823E+02</wgt>
<wgt id='3432'>0.81521E+02</wgt>
<wgt id='3433'>0.81174E+02</wgt>
<wgt id='3434'>0.83383E+02</wgt>
<wgt id='3435'>0.82442E+02</wgt>
<wgt id='3436'>0.81546E+02</wgt>
<wgt id='3437'>0.82608E+02</wgt>
<wgt id='3438'>0.80203E+02</wgt>
<wgt id='3439'>0.79939E+02</wgt>
<wgt id='3440'>0.81408E+02</wgt>
<wgt id='3441'>0.82009E+02</wgt>
<wgt id='3442'>0.81554E+02</wgt>
<wgt id='3443'>0.82329E+02</wgt>
<wgt id='3444'>0.81096E+02</wgt>
<wgt id='3445'>0.80354E+02</wgt>
<wgt id='3446'>0.81487E+02</wgt>
<wgt id='3447'>0.81012E+02</wgt>
<wgt id='3448'>0.81588E+02</wgt>
<wgt id='3449'>0.81023E+02</wgt>
<wgt id='3450'>0.80486E+02</wgt>
<wgt id='3451'>0.81634E+02</wgt>
<wgt id='3452'>0.80236E+02</wgt>
<wgt id='3453'>0.79578E+02</wgt>
<wgt id='3454'>0.80847E+02</wgt>
<wgt id='3455'>0.81730E+02</wgt>
<wgt id='3456'>0.81304E+02</wgt>
<wgt id='3457'>0.80818E+02</wgt>
<wgt id='3458'>0.80042E+02</wgt>
<wgt id='3459'>0.81917E+02</wgt>
<wgt id='3460'>0.81144E+02</wgt>
<wgt id='3461'>0.80798E+02</wgt>
<wgt id='3462'>0.80598E+02</wgt>
<wgt id='3463'>0.80324E+02</wgt>
<wgt id='3464'>0.81096E+02</wgt>
<wgt id='3465'>0.79942E+02</wgt>
<wgt id='3466'>0.82164E+02</wgt>
<wgt id='3467'>0.80705E+02</wgt>
<wgt id='3468'>0.80433E+02</wgt>
<wgt id='3469'>0.79299E+02</wgt>
<wgt id='3470'>0.81124E+02</wgt>
<wgt id='3471'>0.80362E+02</wgt>
<wgt id='3472'>0.79700E+02</wgt>
<wgt id='3473'>0.82920E+02</wgt>
<wgt id='3474'>0.81058E+02</wgt>
<wgt id='3475'>0.81125E+02</wgt>
<wgt id='3476'>0.81633E+02</wgt>
<wgt id='3477'>0.80289E+02</wgt>
<wgt id='3478'>0.81519E+02</wgt>
<wgt id='3479'>0.80473E+02</wgt>
<wgt id='3480'>0.81159E+02</wgt>
<wgt id='3481'>0.82491E+02</wgt>
<wgt id='3482'>0.81212E+02</wgt>
<wgt id='3483'>0.81105E+02</wgt>
<wgt id='3484'>0.80833E+02</wgt>
<wgt id='3485'>0.80020E+02</wgt>
<wgt id='3486'>0.79401E+02</wgt>
<wgt id='3487'>0.80334E+02</wgt>
<wgt id='3488'>0.81319E+02</wgt>
<wgt id='3489'>0.80294E+02</wgt>
<wgt id='3490'>0.82326E+02</wgt>
<wgt id='3491'>0.82600E+02</wgt>
<wgt id='3492'>0.81224E+02</wgt>
<wgt id='3493'>0.82393E+02</wgt>
<wgt id='3494'>0.79215E+02</wgt>
<wgt id='3495'>0.82327E+02</wgt>
<wgt id='3496'>0.79578E+02</wgt>
<wgt id='3497'>0.80820E+02</wgt>
<wgt id='3498'>0.81783E+02</wgt>
<wgt id='3499'>0.82496E+02</wgt>
<wgt id='3500'>0.82988E+02</wgt>
</rwgt>
</event>
<event>
     13 322200  8.11039E+01  9.76308E+00 -1.00000E+00  1.92875E-01
      21    -1     0     0   502   503  0.000000000E+00  0.000000000E+00  1.086590225E+03  1.086590225E+03  0.000000000E+00  0.00000E+00  9.000E+00
      21    -1     0     0   504   505  0.000000000E+00  0.000000000E+00 -8.125081718E+01  8.125081718E+01  0.000000000E+00  0.00000E+00  9.000E+00
       6     2     1     2   502     0 -5.211212747E+01  3.238764655E+01  6.992859714E+02  7.237176248E+02  1.760729883E+02  0.00000E+00  9.000E+00
      -6     2     1     2     0   505  4.234927656E+01 -3.232116248E+01  4.989912451E+01  1.877831178E+02  1.730157736E+02  0.00000E+00  9.000E+00
      21     1     1     2   504   503  9.762850904E+00 -6.648407046E-02  2.561543115E+02  2.563402991E+02  3.814697266E-06  0.00000E+00  9.000E+00
      24     2     3     3     0     0 -7.752496733E+01 -1.300944951E+01  6.114367117E+02  6.214933382E+02  7.886539542E+01  0.00000E+00  9.000E+00
       5     1     3     3   502     0  2.541283987E+01  4.539709606E+01  8.784925966E+01  1.022242867E+02  5.060000000E+00  0.00000E+00 -1.000E+00
     -24     2     4     4     0     0 -4.041585872E+01 -4.547731234E+00  1.991363413E+01  9.533765095E+01  8.389631321E+01  0.00000E+00  9.000E+00
      -5     1     4     4     0   505  8.276513528E+01 -2.777343124E+01  2.998549038E+01  9.244546681E+01  5.060000000E+00  0.00000E+00  1.000E+00
     -11     1     6     6     0     0 -3.017899385E+01 -1.428926509E+01  6.563449513E+01  7.363994648E+01  5.100000000E-04  0.00000E+00  1.000E+00
      12     1     6     6     0     0 -4.734597349E+01  1.279815579E+00  5.458022166E+02  5.478533917E+02  0.000000000E+00  0.00000E+00 -1.000E+00
      13     1     8     8     0     0 -3.458905880E+00 -5.850698794E+00  4.826435690E+01  4.874068143E+01  1.057000000E-01  0.00000E+00 -1.000E+00
     -14     1     8     8     0     0 -3.695695283E+01  1.302967561E+00 -2.835072277E+01  4.659696953E+01  0.000000000E+00  0.00000E+00  1.000E+00
#rwgt            1           1   620.53850051215443               10       11791           0
<rwgt>
<wgt id='1001'>0.81104E+02</wgt>
<wgt id='1002'>0.67502E+02</wgt>
<wgt id='1003'>0.96072E+02</wgt>
<wgt id='1004'>0.74347E+02</wgt>
<wgt id='1005'>0.63157E+02</wgt>
<wgt id='1006'>0.86618E+02</wgt>
<wgt id='1007'>0.87373E+02</wgt>
<wgt id='1008'>0.70475E+02</wgt>
<wgt id='1009'>0.10605E+03</wgt>
<wgt id='2000'>0.81104E+02</wgt>
<wgt id='2001'>0.80934E+02</wgt>
<wgt id='2002'>0.80947E+02</wgt>
<wgt id='2003'>0.81214E+02</wgt>
<wgt id='2004'>0.81356E+02</wgt>
<wgt id='2005'>0.80972E+02</wgt>
<wgt id='2006'>0.81316E+02</wgt>
<wgt id='2007'>0.81241E+02</wgt>
<wgt id='2008'>0.81198E+02</wgt>
<wgt id='2009'>0.81217E+02</wgt>
<wgt id='2010'>0.81041E+02</wgt>
<wgt id='2011'>0.81090E+02</wgt>
<wgt id='2012'>0.81311E+02</wgt>
<wgt id='2013'>0.81133E+02</wgt>
<wgt id='2014'>0.81152E+02</wgt>
<wgt id='2015'>0.81098E+02</wgt>
<wgt id='2016'>0.81185E+02</wgt>
<wgt id='2017'>0.81172E+02</wgt>
<wgt id='2018'>0.81125E+02</wgt>
<wgt id='2019'>0.80541E+02</wgt>
<wgt id='2020'>0.81118E+02</wgt>
<wgt id='2021'>0.81121E+02</wgt>
<wgt id='2022'>0.81057E+02</wgt>
<wgt id='2023'>0.81386E+02</wgt>
<wgt id='2024'>0.80679E+02</wgt>
<wgt id='2025'>0.81249E+02</wgt>
<wgt id='2026'>0.81020E+02</wgt>
<wgt id='2027'>0.81213E+02</wgt>
<wgt id='2028'>0.81165E+02</wgt>
<wgt id='2029'>0.80984E+02</wgt>
<wgt id='2030'>0.81176E+02</wgt>
<wgt id='2031'>0.80713E+02</wgt>
<wgt id='2032'>0.80982E+02</wgt>
<wgt id='2033'>0.80978E+02</wgt>
<wgt id='2034'>0.80826E+02</wgt>
<wgt id='2035'>0.81215E+02</wgt>
<wgt id='2036'>0.81288E+02</wgt>
<wgt id='2037'>0.81014E+02</wgt>
<wgt id='2038'>0.80988E+02</wgt>
<wgt id='2039'>0.81042E+02</wgt>
<wgt id='2040'>0.81001E+02</wgt>
<wgt id='2041'>0.81039E+02</wgt>
<wgt id='2042'>0.81229E+02</wgt>
<wgt id='2043'>0.81088E+02</wgt>
<wgt id='2044'>0.81151E+02</wgt>
<wgt id='2045'>0.81103E+02</wgt>
<wgt id='2046'>0.81046E+02</wgt>
<wgt id='2047'>0.81111E+02</wgt>
<wgt id='2048'>0.81072E+02</wgt>
<wgt id='2049'>0.81021E+02</wgt>
<wgt id='2050'>0.81032E+02</wgt>
<wgt id='2051'>0.81063E+02</wgt>
<wgt id='2052'>0.81221E+02</wgt>
<wgt id='2053'>0.81081E+02</wgt>
<wgt id='2054'>0.81077E+02</wgt>
<wgt id='2055'>0.81079E+02</wgt>
<wgt id='2056'>0.81041E+02</wgt>
<wgt id='2057'>0.81136E+02</wgt>
<wgt id='2058'>0.81154E+02</wgt>
<wgt id='2059'>0.81095E+02</wgt>
<wgt id='2060'>0.81096E+02</wgt>
<wgt id='2061'>0.81073E+02</wgt>
<wgt id='2062'>0.81195E+02</wgt>
<wgt id='2063'>0.81124E+02</wgt>
<wgt id='2064'>0.81116E+02</wgt>
<wgt id='2065'>0.81175E+02</wgt>
<wgt id='2066'>0.81068E+02</wgt>
<wgt id='2067'>0.81095E+02</wgt>
<wgt id='2068'>0.81147E+02</wgt>
<wgt id='2069'>0.81104E+02</wgt>
<wgt id='2070'>0.81122E+02</wgt>
<wgt id='2071'>0.81094E+02</wgt>
<wgt id='2072'>0.81085E+02</wgt>
<wgt id='2073'>0.81126E+02</wgt>
<wgt id='2074'>0.81083E+02</wgt>
<wgt id='2075'>0.81082E+02</wgt>
<wgt id='2076'>0.81087E+02</wgt>
<wgt id='2077'>0.81151E+02</wgt>
<wgt id='2078'>0.81121E+02</wgt>
<wgt id='2079'>0.81080E+02</wgt>
<wgt id='2080'>0.81120E+02</wgt>
<wgt id='2081'>0.81095E+02</wgt>
<wgt id='2082'>0.81118E+02</wgt>
<wgt id='2083'>0.81147E+02</wgt>
<wgt id='2084'>0.81100E+02</wgt>
<wgt id='2085'>0.81113E+02</wgt>
<wgt id='2086'>0.81092E+02</wgt>
<wgt id='2087'>0.81117E+02</wgt>
<wgt id='2088'>0.81100E+02</wgt>
<wgt id='2089'>0.81088E+02</wgt>
<wgt id='2090'>0.81123E+02</wgt>
<wgt id='2091'>0.81108E+02</wgt>
<wgt id='2092'>0.81140E+02</wgt>
<wgt id='2093'>0.81085E+02</wgt>
<wgt id='2094'>0.81109E+02</wgt>
<wgt id='2095'>0.81129E+02</wgt>
<wgt id='2096'>0.81087E+02</wgt>
<wgt id='2097'>0.81122E+02</wgt>
<wgt id='2098'>0.81102E+02</wgt>
<wgt id='2099'>0.81117E+02</wgt>
<wgt id='2100'>0.81104E+02</wgt>
<wgt id='2101'>0.79422E+02</wgt>
<wgt id='2102'>0.83202E+02</wgt>
<wgt id='2200'>0.81120E+02</wgt>
<wgt id='2201'>0.71400E+02</wgt>
<wgt id='2202'>0.73387E+02</wgt>
<wgt id='2203'>0.75316E+02</wgt>
<wgt id='2204'>0.76975E+02</wgt>
<wgt id='2205'>0.80178E+02</wgt>
<wgt id='2206'>0.82380E+02</wgt>
<wgt id='2207'>0.85206E+02</wgt>
<wgt id='2208'>0.87369E+02</wgt>
<wgt id='2300'>0.85600E+02</wgt>
<wgt id='2301'>0.85749E+02</wgt>
<wgt id='2302'>0.85493E+02</wgt>
<wgt id='2303'>0.85577E+02</wgt>
<wgt id='2304'>0.85857E+02</wgt>
<wgt id='2305'>0.85658E+02</wgt>
<wgt id='2306'>0.85578E+02</wgt>
<wgt id='2307'>0.85632E+02</wgt>
<wgt id='2308'>0.85514E+02</wgt>
<wgt id='2309'>0.85629E+02</wgt>
<wgt id='2310'>0.85373E+02</wgt>
<wgt id='2311'>0.85542E+02</wgt>
<wgt id='2312'>0.85751E+02</wgt>
<wgt id='2313'>0.85550E+02</wgt>
<wgt id='2314'>0.85596E+02</wgt>
<wgt id='2315'>0.85551E+02</wgt>
<wgt id='2316'>0.85672E+02</wgt>
<wgt id='2317'>0.85613E+02</wgt>
<wgt id='2318'>0.85611E+02</wgt>
<wgt id='2319'>0.85645E+02</wgt>
<wgt id='2320'>0.85796E+02</wgt>
<wgt id='2321'>0.85763E+02</wgt>
<wgt id='2322'>0.85564E+02</wgt>
<wgt id='2323'>0.85593E+02</wgt>
<wgt id='2324'>0.85704E+02</wgt>
<wgt id='2325'>0.85663E+02</wgt>
<wgt id='2326'>0.85377E+02</wgt>
<wgt id='2327'>0.85690E+02</wgt>
<wgt id='2328'>0.85691E+02</wgt>
<wgt id='2329'>0.85462E+02</wgt>
<wgt id='2330'>0.86075E+02</wgt>
<wgt id='2331'>0.85826E+02</wgt>
<wgt id='2332'>0.85345E+02</wgt>
<wgt id='2333'>0.85395E+02</wgt>
<wgt id='2334'>0.85525E+02</wgt>
<wgt id='2335'>0.85398E+02</wgt>
<wgt id='2336'>0.85708E+02</wgt>
<wgt id='2337'>0.85821E+02</wgt>
<wgt id='2338'>0.85633E+02</wgt>
<wgt id='2339'>0.85827E+02</wgt>
<wgt id='2340'>0.85789E+02</wgt>
<wgt id='2341'>0.85629E+02</wgt>
<wgt id='2342'>0.85309E+02</wgt>
<wgt id='2343'>0.85309E+02</wgt>
<wgt id='2344'>0.85768E+02</wgt>
<wgt id='2345'>0.85743E+02</wgt>
<wgt id='2346'>0.85809E+02</wgt>
<wgt id='2347'>0.85527E+02</wgt>
<wgt id='2348'>0.85779E+02</wgt>
<wgt id='2349'>0.85548E+02</wgt>
<wgt id='2350'>0.85471E+02</wgt>
<wgt id='2351'>0.85855E+02</wgt>
<wgt id='2352'>0.85521E+02</wgt>
<wgt id='2353'>0.85514E+02</wgt>
<wgt id='2354'>0.85587E+02</wgt>
<wgt id='2355'>0.85622E+02</wgt>
<wgt id='2356'>0.85593E+02</wgt>
<wgt id='2357'>0.85525E+02</wgt>
<wgt id='2358'>0.85588E+02</wgt>
<wgt id='2359'>0.85537E+02</wgt>
<wgt id='2360'>0.85629E+02</wgt>
<wgt id='2361'>0.85535E+02</wgt>
<wgt id='2362'>0.85603E+02</wgt>
<wgt id='2363'>0.85625E+02</wgt>
<wgt id='2364'>0.85583E+02</wgt>
<wgt id='2365'>0.85580E+02</wgt>
<wgt id='2366'>0.85615E+02</wgt>
<wgt id='2367'>0.85558E+02</wgt>
<wgt id='2368'>0.85605E+02</wgt>
<wgt id='2369'>0.85560E+02</wgt>
<wgt id='2370'>0.85596E+02</wgt>
<wgt id='2371'>0.85605E+02</wgt>
<wgt id='2372'>0.85594E+02</wgt>
<wgt id='2373'>0.85558E+02</wgt>
<wgt id='2374'>0.85719E+02</wgt>
<wgt id='2375'>0.85601E+02</wgt>
<wgt id='2376'>0.85613E+02</wgt>
<wgt id='2377'>0.85623E+02</wgt>
<wgt id='2378'>0.85635E+02</wgt>
<wgt id='2379'>0.85550E+02</wgt>
<wgt id='2380'>0.85563E+02</wgt>
<wgt id='2381'>0.85586E+02</wgt>
<wgt id='2382'>0.85567E+02</wgt>
<wgt id='2383'>0.85604E+02</wgt>
<wgt id='2384'>0.85590E+02</wgt>
<wgt id='2385'>0.85620E+02</wgt>
<wgt id='2386'>0.85558E+02</wgt>
<wgt id='2387'>0.85572E+02</wgt>
<wgt id='2388'>0.85588E+02</wgt>
<wgt id='2389'>0.85598E+02</wgt>
<wgt id='2390'>0.85594E+02</wgt>
<wgt id='2391'>0.85598E+02</wgt>
<wgt id='2392'>0.85609E+02</wgt>
<wgt id='2393'>0.85620E+02</wgt>
<wgt id='2394'>0.85630E+02</wgt>
<wgt id='2395'>0.85601E+02</wgt>
<wgt id='2396'>0.85592E+02</wgt>
<wgt id='2397'>0.85584E+02</wgt>
<wgt id='2398'>0.85600E+02</wgt>
<wgt id='2399'>0.85617E+02</wgt>
<wgt id='2400'>0.85618E+02</wgt>
<wgt id='2401'>0.83644E+02</wgt>
<wgt id='2402'>0.87811E+02</wgt>
<wgt id='2500'>0.82322E+02</wgt>
<wgt id='2501'>0.87125E+02</wgt>
<wgt id='2600'>0.79185E+02</wgt>
<wgt id='2601'>0.78996E+02</wgt>
<wgt id='2602'>0.79236E+02</wgt>
<wgt id='2603'>0.79174E+02</wgt>
<wgt id='2604'>0.79257E+02</wgt>
<wgt id='2605'>0.79088E+02</wgt>
<wgt id='2606'>0.79186E+02</wgt>
<wgt id='2607'>0.79258E+02</wgt>
<wgt id='2608'>0.79265E+02</wgt>
<wgt id='2609'>0.79119E+02</wgt>
<wgt id='2610'>0.79128E+02</wgt>
<wgt id='2611'>0.79159E+02</wgt>
<wgt id='2612'>0.79244E+02</wgt>
<wgt id='2613'>0.79191E+02</wgt>
<wgt id='2614'>0.79123E+02</wgt>
<wgt id='2615'>0.79021E+02</wgt>
<wgt id='2616'>0.79226E+02</wgt>
<wgt id='2617'>0.79001E+02</wgt>
<wgt id='2618'>0.79147E+02</wgt>
<wgt id='2619'>0.79254E+02</wgt>
<wgt id='2620'>0.79069E+02</wgt>
<wgt id='2621'>0.79286E+02</wgt>
<wgt id='2622'>0.79515E+02</wgt>
<wgt id='2623'>0.79166E+02</wgt>
<wgt id='2624'>0.79148E+02</wgt>
<wgt id='2625'>0.79235E+02</wgt>
<wgt id='2626'>0.79203E+02</wgt>
<wgt id='2627'>0.79262E+02</wgt>
<wgt id='2628'>0.79166E+02</wgt>
<wgt id='2629'>0.79244E+02</wgt>
<wgt id='2630'>0.79331E+02</wgt>
<wgt id='2631'>0.79046E+02</wgt>
<wgt id='2632'>0.79113E+02</wgt>
<wgt id='2633'>0.79113E+02</wgt>
<wgt id='2634'>0.79055E+02</wgt>
<wgt id='2635'>0.79109E+02</wgt>
<wgt id='2636'>0.79205E+02</wgt>
<wgt id='2637'>0.79199E+02</wgt>
<wgt id='2638'>0.79182E+02</wgt>
<wgt id='2639'>0.79197E+02</wgt>
<wgt id='2640'>0.79168E+02</wgt>
<wgt id='2641'>0.79183E+02</wgt>
<wgt id='2642'>0.79197E+02</wgt>
<wgt id='2643'>0.79142E+02</wgt>
<wgt id='2644'>0.79180E+02</wgt>
<wgt id='2645'>0.79170E+02</wgt>
<wgt id='2646'>0.79240E+02</wgt>
<wgt id='2647'>0.79167E+02</wgt>
<wgt id='2648'>0.79168E+02</wgt>
<wgt id='2649'>0.79184E+02</wgt>
<wgt id='2650'>0.79194E+02</wgt>
<wgt id='2651'>0.77869E+02</wgt>
<wgt id='2652'>0.80248E+02</wgt>
<wgt id='2700'>0.76732E+02</wgt>
<wgt id='2701'>0.77869E+02</wgt>
<wgt id='2702'>0.78590E+02</wgt>
<wgt id='2703'>0.79747E+02</wgt>
<wgt id='2704'>0.80248E+02</wgt>
<wgt id='2705'>0.81508E+02</wgt>
<wgt id='2800'>0.80734E+02</wgt>
<wgt id='4000'>0.82358E+02</wgt>
<wgt id='4001'>0.82636E+02</wgt>
<wgt id='4002'>0.82331E+02</wgt>
<wgt id='4003'>0.81996E+02</wgt>
<wgt id='4004'>0.82813E+02</wgt>
<wgt id='4005'>0.82434E+02</wgt>
<wgt id='4006'>0.82414E+02</wgt>
<wgt id='4007'>0.82946E+02</wgt>
<wgt id='4008'>0.81814E+02</wgt>
<wgt id='4009'>0.82170E+02</wgt>
<wgt id='4010'>0.82312E+02</wgt>
<wgt id='4011'>0.82843E+02</wgt>
<wgt id='4012'>0.81801E+02</wgt>
<wgt id='4013'>0.82641E+02</wgt>
<wgt id='4014'>0.82200E+02</wgt>
<wgt id='4015'>0.82286E+02</wgt>
<wgt id='4016'>0.83133E+02</wgt>
<wgt id='4017'>0.82374E+02</wgt>
<wgt id='4018'>0.82372E+02</wgt>
<wgt id='4019'>0.82521E+02</wgt>
<wgt id='4020'>0.82191E+02</wgt>
<wgt id='4021'>0.82558E+02</wgt>
<wgt id='4022'>0.82000E+02</wgt>
<wgt id='4023'>0.82636E+02</wgt>
<wgt id='4024'>0.82592E+02</wgt>
<wgt id='4025'>0.82392E+02</wgt>
<wgt id='4026'>0.82389E+02</wgt>
<wgt id='4027'>0.82859E+02</wgt>
<wgt id='4028'>0.81962E+02</wgt>
<wgt id='4029'>0.82930E+02</wgt>
<wgt id='4030'>0.81547E+02</wgt>
<wgt id='4031'>0.82157E+02</wgt>
<wgt id='4032'>0.83437E+02</wgt>
<wgt id='4033'>0.82892E+02</wgt>
<wgt id='4034'>0.81751E+02</wgt>
<wgt id='4035'>0.83061E+02</wgt>
<wgt id='4036'>0.81817E+02</wgt>
<wgt id='4037'>0.84551E+02</wgt>
<wgt id='4038'>0.80716E+02</wgt>
<wgt id='4039'>0.83998E+02</wgt>
<wgt id='4040'>0.80800E+02</wgt>
<wgt id='4041'>0.82697E+02</wgt>
<wgt id='4042'>0.81940E+02</wgt>
<wgt id='4043'>0.82023E+02</wgt>
<wgt id='4044'>0.81827E+02</wgt>
<wgt id='4045'>0.82900E+02</wgt>
<wgt id='4046'>0.82108E+02</wgt>
<wgt id='4047'>0.82306E+02</wgt>
<wgt id='4048'>0.82569E+02</wgt>
<wgt id='4049'>0.82398E+02</wgt>
<wgt id='4050'>0.82348E+02</wgt>
<wgt id='4051'>0.82853E+02</wgt>
<wgt id='4052'>0.82066E+02</wgt>
<wgt id='4053'>0.82380E+02</wgt>
<wgt id='4054'>0.81770E+02</wgt>
<wgt id='4055'>0.82784E+02</wgt>
<wgt id='4056'>0.81933E+02</wgt>
<wgt id='4057'>0.81617E+02</wgt>
<wgt id='4058'>0.82858E+02</wgt>
<wgt id='4100'>0.82828E+02</wgt>
<wgt id='4101'>0.82573E+02</wgt>
<wgt id='4102'>0.82170E+02</wgt>
<wgt id='4103'>0.81994E+02</wgt>
<wgt id='4200'>0.80149E+02</wgt>
<wgt id='4201'>0.80133E+02</wgt>
<wgt id='4202'>0.80365E+02</wgt>
<wgt id='4203'>0.79672E+02</wgt>
<wgt id='4204'>0.80434E+02</wgt>
<wgt id='4205'>0.80095E+02</wgt>
<wgt id='4206'>0.80398E+02</wgt>
<wgt id='4207'>0.80517E+02</wgt>
<wgt id='4208'>0.79943E+02</wgt>
<wgt id='4209'>0.80042E+02</wgt>
<wgt id='4210'>0.80285E+02</wgt>
<wgt id='4211'>0.80873E+02</wgt>
<wgt id='4212'>0.79584E+02</wgt>
<wgt id='4213'>0.80323E+02</wgt>
<wgt id='4214'>0.79862E+02</wgt>
<wgt id='4215'>0.80139E+02</wgt>
<wgt id='4216'>0.80203E+02</wgt>
<wgt id='4217'>0.80004E+02</wgt>
<wgt id='4218'>0.80216E+02</wgt>
<wgt id='4219'>0.79560E+02</wgt>
<wgt id='4220'>0.80743E+02</wgt>
<wgt id='4221'>0.79692E+02</wgt>
<wgt id='4222'>0.80832E+02</wgt>
<wgt id='4223'>0.79677E+02</wgt>
<wgt id='4224'>0.79803E+02</wgt>
<wgt id='4225'>0.79179E+02</wgt>
<wgt id='4226'>0.81309E+02</wgt>
<wgt id='4227'>0.80818E+02</wgt>
<wgt id='4228'>0.79584E+02</wgt>
<wgt id='4229'>0.78963E+02</wgt>
<wgt id='4230'>0.81092E+02</wgt>
<wgt id='4231'>0.80364E+02</wgt>
<wgt id='4232'>0.79764E+02</wgt>
<wgt id='4233'>0.80311E+02</wgt>
<wgt id='4234'>0.79538E+02</wgt>
<wgt id='4235'>0.80860E+02</wgt>
<wgt id='4236'>0.79463E+02</wgt>
<wgt id='4237'>0.81074E+02</wgt>
<wgt id='4238'>0.78731E+02</wgt>
<wgt id='4239'>0.79986E+02</wgt>
<wgt id='4240'>0.79749E+02</wgt>
<wgt id='4241'>0.80122E+02</wgt>
<wgt id='4242'>0.80157E+02</wgt>
<wgt id='4243'>0.80320E+02</wgt>
<wgt id='4244'>0.80164E+02</wgt>
<wgt id='4245'>0.79889E+02</wgt>
<wgt id='4246'>0.80140E+02</wgt>
<wgt id='4247'>0.79637E+02</wgt>
<wgt id='4248'>0.80388E+02</wgt>
<wgt id='4249'>0.81265E+02</wgt>
<wgt id='4250'>0.78838E+02</wgt>
<wgt id='4251'>0.80501E+02</wgt>
<wgt id='4252'>0.79858E+02</wgt>
<wgt id='4253'>0.80281E+02</wgt>
<wgt id='4254'>0.79779E+02</wgt>
<wgt id='4255'>0.81204E+02</wgt>
<wgt id='4256'>0.79575E+02</wgt>
<wgt id='4257'>0.78718E+02</wgt>
<wgt id='4258'>0.80565E+02</wgt>
<wgt id='4300'>0.81481E+02</wgt>
<wgt id='4301'>0.81703E+02</wgt>
<wgt id='5000'>0.82287E+02</wgt>
<wgt id='5001'>0.82327E+02</wgt>
<wgt id='5002'>0.82235E+02</wgt>
<wgt id='5003'>0.82305E+02</wgt>
<wgt id='5004'>0.82270E+02</wgt>
<wgt id='5005'>0.82292E+02</wgt>
<wgt id='5006'>0.82278E+02</wgt>
<wgt id='5007'>0.82367E+02</wgt>
<wgt id='5008'>0.82222E+02</wgt>
<wgt id='5009'>0.82387E+02</wgt>
<wgt id='5010'>0.82183E+02</wgt>
<wgt id='5011'>0.82517E+02</wgt>
<wgt id='5012'>0.82065E+02</wgt>
<wgt id='5013'>0.82410E+02</wgt>
<wgt id='5014'>0.82199E+02</wgt>
<wgt id='5015'>0.81882E+02</wgt>
<wgt id='5016'>0.81882E+02</wgt>
<wgt id='5017'>0.82671E+02</wgt>
<wgt id='5018'>0.82027E+02</wgt>
<wgt id='5019'>0.82570E+02</wgt>
<wgt id='5020'>0.81899E+02</wgt>
<wgt id='5021'>0.82385E+02</wgt>
<wgt id='5022'>0.82132E+02</wgt>
<wgt id='5023'>0.82222E+02</wgt>
<wgt id='5024'>0.82441E+02</wgt>
<wgt id='5025'>0.82054E+02</wgt>
<wgt id='5026'>0.82547E+02</wgt>
<wgt id='5027'>0.82338E+02</wgt>
<wgt id='5028'>0.82149E+02</wgt>
<wgt id='5029'>0.83202E+02</wgt>
<wgt id='5030'>0.81771E+02</wgt>
<wgt id='5031'>0.81782E+02</wgt>
<wgt id='5032'>0.83830E+02</wgt>
<wgt id='5033'>0.82242E+02</wgt>
<wgt id='5034'>0.82335E+02</wgt>
<wgt id='5035'>0.82298E+02</wgt>
<wgt id='5036'>0.82274E+02</wgt>
<wgt id='5037'>0.82066E+02</wgt>
<wgt id='5038'>0.82412E+02</wgt>
<wgt id='5039'>0.82476E+02</wgt>
<wgt id='5040'>0.81819E+02</wgt>
<wgt id='5041'>0.82184E+02</wgt>
<wgt id='5042'>0.82399E+02</wgt>
<wgt id='5043'>0.82452E+02</wgt>
<wgt id='5044'>0.82177E+02</wgt>
<wgt id='5045'>0.82401E+02</wgt>
<wgt id='5046'>0.82089E+02</wgt>
<wgt id='5047'>0.82364E+02</wgt>
<wgt id='5048'>0.81948E+02</wgt>
<wgt id='5049'>0.82207E+02</wgt>
<wgt id='5050'>0.82475E+02</wgt>
<wgt id='5051'>0.82498E+02</wgt>
<wgt id='5052'>0.82134E+02</wgt>
<wgt id='5053'>0.82366E+02</wgt>
<wgt id='5054'>0.82468E+02</wgt>
<wgt id='5055'>0.82336E+02</wgt>
<wgt id='5056'>0.82330E+02</wgt>
<wgt id='5057'>0.81962E+02</wgt>
<wgt id='5058'>0.82515E+02</wgt>
<wgt id='5059'>0.82178E+02</wgt>
<wgt id='5060'>0.82354E+02</wgt>
<wgt id='5061'>0.82514E+02</wgt>
<wgt id='5062'>0.82476E+02</wgt>
<wgt id='5063'>0.82567E+02</wgt>
<wgt id='5064'>0.82337E+02</wgt>
<wgt id='5100'>0.82287E+02</wgt>
<wgt id='5101'>0.82284E+02</wgt>
<wgt id='6000'>0.81593E+02</wgt>
<wgt id='6001'>0.81264E+02</wgt>
<wgt id='6002'>0.81167E+02</wgt>
<wgt id='6003'>0.81361E+02</wgt>
<wgt id='6004'>0.81815E+02</wgt>
<wgt id='6005'>0.81140E+02</wgt>
<wgt id='6006'>0.81617E+02</wgt>
<wgt id='6007'>0.81134E+02</wgt>
<wgt id='6008'>0.81679E+02</wgt>
<wgt id='6009'>0.81451E+02</wgt>
<wgt id='6010'>0.81231E+02</wgt>
<wgt id='6011'>0.81538E+02</wgt>
<wgt id='6012'>0.81771E+02</wgt>
<wgt id='6013'>0.81192E+02</wgt>
<wgt id='6014'>0.81297E+02</wgt>
<wgt id='6015'>0.80902E+02</wgt>
<wgt id='6016'>0.81937E+02</wgt>
<wgt id='6017'>0.81251E+02</wgt>
<wgt id='6018'>0.81087E+02</wgt>
<wgt id='6019'>0.81635E+02</wgt>
<wgt id='6020'>0.81778E+02</wgt>
<wgt id='6021'>0.81469E+02</wgt>
<wgt id='6022'>0.81733E+02</wgt>
<wgt id='6023'>0.81556E+02</wgt>
<wgt id='6024'>0.81681E+02</wgt>
<wgt id='6025'>0.82043E+02</wgt>
<wgt id='6026'>0.81458E+02</wgt>
<wgt id='6027'>0.81614E+02</wgt>
<wgt id='6028'>0.81239E+02</wgt>
<wgt id='6029'>0.81412E+02</wgt>
<wgt id='6030'>0.81160E+02</wgt>
<wgt id='6031'>0.81343E+02</wgt>
<wgt id='6032'>0.81560E+02</wgt>
<wgt id='6033'>0.81520E+02</wgt>
<wgt id='6034'>0.81947E+02</wgt>
<wgt id='6035'>0.81652E+02</wgt>
<wgt id='6036'>0.82325E+02</wgt>
<wgt id='6037'>0.81590E+02</wgt>
<wgt id='6038'>0.81537E+02</wgt>
<wgt id='6039'>0.81824E+02</wgt>
<wgt id='6040'>0.81588E+02</wgt>
<wgt id='6041'>0.80516E+02</wgt>
<wgt id='6042'>0.82667E+02</wgt>
<wgt id='7000'>0.80386E+02</wgt>
<wgt id='7001'>0.80078E+02</wgt>
<wgt id='7002'>0.80244E+02</wgt>
<wgt id='7003'>0.80146E+02</wgt>
<wgt id='7004'>0.80176E+02</wgt>
<wgt id='7005'>0.80240E+02</wgt>
<wgt id='7006'>0.80082E+02</wgt>
<wgt id='7007'>0.80630E+02</wgt>
<wgt id='7008'>0.79705E+02</wgt>
<wgt id='7009'>0.79803E+02</wgt>
<wgt id='7010'>0.80531E+02</wgt>
<wgt id='7011'>0.80428E+02</wgt>
<wgt id='7012'>0.79900E+02</wgt>
<wgt id='7013'>0.80078E+02</wgt>
<wgt id='7014'>0.80238E+02</wgt>
<wgt id='7015'>0.80237E+02</wgt>
<wgt id='7016'>0.79900E+02</wgt>
<wgt id='7017'>0.80090E+02</wgt>
<wgt id='7018'>0.80238E+02</wgt>
<wgt id='7019'>0.80305E+02</wgt>
<wgt id='7020'>0.80030E+02</wgt>
<wgt id='7021'>0.80911E+02</wgt>
<wgt id='7022'>0.79427E+02</wgt>
<wgt id='7023'>0.79360E+02</wgt>
<wgt id='7024'>0.80972E+02</wgt>
<wgt id='7025'>0.78838E+02</wgt>
<wgt id='7026'>0.81425E+02</wgt>
<wgt id='7027'>0.79589E+02</wgt>
<wgt id='7028'>0.80797E+02</wgt>
<wgt id='8000'>0.80731E+02</wgt>
<wgt id='8001'>0.80723E+02</wgt>
<wgt id='8002'>0.80755E+02</wgt>
<wgt id='8003'>0.80732E+02</wgt>
<wgt id='8004'>0.80729E+02</wgt>
<wgt id='8005'>0.80583E+02</wgt>
<wgt id='8006'>0.80826E+02</wgt>
<wgt id='8007'>0.80901E+02</wgt>
<wgt id='8008'>0.80905E+02</wgt>
<wgt id='8009'>0.81063E+02</wgt>
<wgt id='8010'>0.80638E+02</wgt>
<wgt id='8011'>0.80757E+02</wgt>
<wgt id='8012'>0.80437E+02</wgt>
<wgt id='8013'>0.80566E+02</wgt>
<wgt id='8014'>0.80938E+02</wgt>
<wgt id='8015'>0.80681E+02</wgt>
<wgt id='8016'>0.80835E+02</wgt>
<wgt id='8017'>0.80827E+02</wgt>
<wgt id='8018'>0.80994E+02</wgt>
<wgt id='8019'>0.80659E+02</wgt>
<wgt id='8020'>0.80897E+02</wgt>
<wgt id='8021'>0.80606E+02</wgt>
<wgt id='8022'>0.81031E+02</wgt>
<wgt id='8023'>0.80511E+02</wgt>
<wgt id='8024'>0.80275E+02</wgt>
<wgt id='8025'>0.80448E+02</wgt>
<wgt id='8026'>0.80771E+02</wgt>
<wgt id='8027'>0.80850E+02</wgt>
<wgt id='8028'>0.80766E+02</wgt>
<wgt id='8029'>0.81619E+02</wgt>
<wgt id='3000'>0.81104E+02</wgt>
<wgt id='3001'>0.80805E+02</wgt>
<wgt id='3002'>0.80483E+02</wgt>
<wgt id='3003'>0.81934E+02</wgt>
<wgt id='3004'>0.82193E+02</wgt>
<wgt id='3005'>0.82471E+02</wgt>
<wgt id='3006'>0.81852E+02</wgt>
<wgt id='3007'>0.79400E+02</wgt>
<wgt id='3008'>0.79736E+02</wgt>
<wgt id='3009'>0.80779E+02</wgt>
<wgt id='3010'>0.83889E+02</wgt>
<wgt id='3011'>0.81427E+02</wgt>
<wgt id='3012'>0.80251E+02</wgt>
<wgt id='3013'>0.79382E+02</wgt>
<wgt id='3014'>0.80770E+02</wgt>
<wgt id='3015'>0.79405E+02</wgt>
<wgt id='3016'>0.81546E+02</wgt>
<wgt id='3017'>0.82281E+02</wgt>
<wgt id='3018'>0.80073E+02</wgt>
<wgt id='3019'>0.80250E+02</wgt>
<wgt id='3020'>0.80840E+02</wgt>
<wgt id='3021'>0.78425E+02</wgt>
<wgt id='3022'>0.79601E+02</wgt>
<wgt id='3023'>0.80006E+02</wgt>
<wgt id='3024'>0.81320E+02</wgt>
<wgt id='3025'>0.79996E+02</wgt>
<wgt id='3026'>0.79988E+02</wgt>
<wgt id='3027'>0.81883E+02</wgt>
<wgt id='3028'>0.79439E+02</wgt>
<wgt id='3029'>0.81801E+02</wgt>
<wgt id='3030'>0.81052E+02</wgt>
<wgt id='3031'>0.80567E+02</wgt>
<wgt id='3032'>0.79060E+02</wgt>
<wgt id='3033'>0.80362E+02</wgt>
<wgt id='3034'>0.82556E+02</wgt>
<wgt id='3035'>0.81071E+02</wgt>
<wgt id='3036'>0.80277E+02</wgt>
<wgt id='3037'>0.79674E+02</wgt>
<wgt id='3038'>0.81694E+02</wgt>
<wgt id='3039'>0.79216E+02</wgt>
<wgt id='3040'>0.81407E+02</wgt>
<wgt id='3041'>0.82032E+02</wgt>
<wgt id='3042'>0.81703E+02</wgt>
<wgt id='3043'>0.82436E+02</wgt>
<wgt id='3044'>0.82404E+02</wgt>
<wgt id='3045'>0.81849E+02</wgt>
<wgt id='3046'>0.81425E+02</wgt>
<wgt id='3047'>0.81001E+02</wgt>
<wgt id='3048'>0.81889E+02</wgt>
<wgt id='3049'>0.79923E+02</wgt>
<wgt id='3050'>0.81471E+02</wgt>
<wgt id='3051'>0.80157E+02</wgt>
<wgt id='3052'>0.79881E+02</wgt>
<wgt id='3053'>0.82229E+02</wgt>
<wgt id='3054'>0.79023E+02</wgt>
<wgt id='3055'>0.81490E+02</wgt>
<wgt id='3056'>0.81091E+02</wgt>
<wgt id='3057'>0.79592E+02</wgt>
<wgt id='3058'>0.82209E+02</wgt>
<wgt id='3059'>0.81265E+02</wgt>
<wgt id='3060'>0.80145E+02</wgt>
<wgt id='3061'>0.80011E+02</wgt>
<wgt id='3062'>0.81273E+02</wgt>
<wgt id='3063'>0.81110E+02</wgt>
<wgt id='3064'>0.82579E+02</wgt>
<wgt id='3065'>0.79591E+02</wgt>
<wgt id='3066'>0.82829E+02</wgt>
<wgt id='3067'>0.80394E+02</wgt>
<wgt id='3068'>0.80656E+02</wgt>
<wgt id='3069'>0.80799E+02</wgt>
<wgt id='3070'>0.81603E+02</wgt>
<wgt id='3071'>0.81293E+02</wgt>
<wgt id='3072'>0.81091E+02</wgt>
<wgt id='3073'>0.81485E+02</wgt>
<wgt id='3074'>0.80713E+02</wgt>
<wgt id='3075'>0.81824E+02</wgt>
<wgt id='3076'>0.83098E+02</wgt>
<wgt id='3077'>0.82187E+02</wgt>
<wgt id='3078'>0.79316E+02</wgt>
<wgt id='3079'>0.81228E+02</wgt>
<wgt id='3080'>0.83449E+02</wgt>
<wgt id='3081'>0.81829E+02</wgt>
<wgt id='3082'>0.81546E+02</wgt>
<wgt id='3083'>0.81778E+02</wgt>
<wgt id='3084'>0.80645E+02</wgt>
<wgt id='3085'>0.80203E+02</wgt>
<wgt id='3086'>0.82412E+02</wgt>
<wgt id='3087'>0.80489E+02</wgt>
<wgt id='3088'>0.82047E+02</wgt>
<wgt id='3089'>0.84477E+02</wgt>
<wgt id='3090'>0.81672E+02</wgt>
<wgt id='3091'>0.81226E+02</wgt>
<wgt id='3092'>0.81975E+02</wgt>
<wgt id='3093'>0.81684E+02</wgt>
<wgt id='3094'>0.81990E+02</wgt>
<wgt id='3095'>0.79569E+02</wgt>
<wgt id='3096'>0.80673E+02</wgt>
<wgt id='3097'>0.84180E+02</wgt>
<wgt id='3098'>0.81765E+02</wgt>
<wgt id='3099'>0.80068E+02</wgt>
<wgt id='3100'>0.80735E+02</wgt>
<wgt id='3200'>0.79263E+02</wgt>
<wgt id='3201'>0.79208E+02</wgt>
<wgt id='3202'>0.77495E+02</wgt>
<wgt id='3203'>0.79655E+02</wgt>
<wgt id='3204'>0.78629E+02</wgt>
<wgt id='3205'>0.79524E+02</wgt>
<wgt id='3206'>0.80439E+02</wgt>
<wgt id='3207'>0.80190E+02</wgt>
<wgt id='3208'>0.79479E+02</wgt>
<wgt id='3209'>0.79149E+02</wgt>
<wgt id='3210'>0.79408E+02</wgt>
<wgt id='3211'>0.79718E+02</wgt>
<wgt id='3212'>0.79378E+02</wgt>
<wgt id='3213'>0.79586E+02</wgt>
<wgt id='3214'>0.78912E+02</wgt>
<wgt id='3215'>0.79341E+02</wgt>
<wgt id='3216'>0.79890E+02</wgt>
<wgt id='3217'>0.79631E+02</wgt>
<wgt id='3218'>0.80275E+02</wgt>
<wgt id='3219'>0.79195E+02</wgt>
<wgt id='3220'>0.78409E+02</wgt>
<wgt id='3221'>0.79258E+02</wgt>
<wgt id='3222'>0.80078E+02</wgt>
<wgt id='3223'>0.80243E+02</wgt>
<wgt id='3224'>0.78988E+02</wgt>
<wgt id='3225'>0.80162E+02</wgt>
<wgt id='3226'>0.78507E+02</wgt>
<wgt id='3227'>0.78375E+02</wgt>
<wgt id='3228'>0.78435E+02</wgt>
<wgt id='3229'>0.80180E+02</wgt>
<wgt id='3230'>0.79571E+02</wgt>
<wgt id='3231'>0.79426E+02</wgt>
<wgt id='3232'>0.79570E+02</wgt>
<wgt id='3233'>0.79547E+02</wgt>
<wgt id='3234'>0.78291E+02</wgt>
<wgt id='3235'>0.79377E+02</wgt>
<wgt id='3236'>0.79363E+02</wgt>
<wgt id='3237'>0.79458E+02</wgt>
<wgt id='3238'>0.78379E+02</wgt>
<wgt id='3239'>0.78733E+02</wgt>
<wgt id='3240'>0.78211E+02</wgt>
<wgt id='3241'>0.80174E+02</wgt>
<wgt id='3242'>0.79215E+02</wgt>
<wgt id='3243'>0.79315E+02</wgt>
<wgt id='3244'>0.79349E+02</wgt>
<wgt id='3245'>0.79784E+02</wgt>
<wgt id='3246'>0.77675E+02</wgt>
<wgt id='3247'>0.78670E+02</wgt>
<wgt id='3248'>0.78955E+02</wgt>
<wgt id='3249'>0.78165E+02</wgt>
<wgt id='3250'>0.79328E+02</wgt>
<wgt id='3251'>0.78881E+02</wgt>
<wgt id='3252'>0.79993E+02</wgt>
<wgt id='3253'>0.79233E+02</wgt>
<wgt id='3254'>0.79065E+02</wgt>
<wgt id='3255'>0.78489E+02</wgt>
<wgt id='3256'>0.79483E+02</wgt>
<wgt id='3257'>0.79227E+02</wgt>
<wgt id='3258'>0.78738E+02</wgt>
<wgt id='3259'>0.78345E+02</wgt>
<wgt id='3260'>0.79118E+02</wgt>
<wgt id='3261'>0.78731E+02</wgt>
<wgt id='3262'>0.80069E+02</wgt>
<wgt id='3263'>0.79937E+02</wgt>
<wgt id='3264'>0.79323E+02</wgt>
<wgt id='3265'>0.79774E+02</wgt>
<wgt id='3266'>0.79458E+02</wgt>
<wgt id='3267'>0.79255E+02</wgt>
<wgt id='3268'>0.78712E+02</wgt>
<wgt id='3269'>0.79179E+02</wgt>
<wgt id='3270'>0.80551E+02</wgt>
<wgt id='3271'>0.79412E+02</wgt>
<wgt id='3272'>0.79482E+02</wgt>
<wgt id='3273'>0.79299E+02</wgt>
<wgt id='3274'>0.78587E+02</wgt>
<wgt id='3275'>0.79927E+02</wgt>
<wgt id='3276'>0.78599E+02</wgt>
<wgt id='3277'>0.79184E+02</wgt>
<wgt id='3278'>0.79912E+02</wgt>
<wgt id='3279'>0.79554E+02</wgt>
<wgt id='3280'>0.79124E+02</wgt>
<wgt id='3281'>0.79827E+02</wgt>
<wgt id='3282'>0.79512E+02</wgt>
<wgt id='3283'>0.79395E+02</wgt>
<wgt id='3284'>0.78911E+02</wgt>
<wgt id='3285'>0.79223E+02</wgt>
<wgt id='3286'>0.78244E+02</wgt>
<wgt id='3287'>0.80527E+02</wgt>
<wgt id='3288'>0.78833E+02</wgt>
<wgt id='3289'>0.80306E+02</wgt>
<wgt id='3290'>0.78551E+02</wgt>
<wgt id='3291'>0.78280E+02</wgt>
<wgt id='3292'>0.79062E+02</wgt>
<wgt id='3293'>0.79168E+02</wgt>
<wgt id='3294'>0.79122E+02</wgt>
<wgt id='3295'>0.78986E+02</wgt>
<wgt id='3296'>0.80039E+02</wgt>
<wgt id='3297'>0.79254E+02</wgt>
<wgt id='3298'>0.78376E+02</wgt>
<wgt id='3299'>0.79572E+02</wgt>
<wgt id='3300'>0.80087E+02</wgt>
<wgt id='3301'>0.77869E+02</wgt>
<wgt id='3302'>0.80248E+02</wgt>
<wgt id='3400'>0.78622E+02</wgt>
<wgt id='3401'>0.78863E+02</wgt>
<wgt id='3402'>0.77233E+02</wgt>
<wgt id='3403'>0.79292E+02</wgt>
<wgt id='3404'>0.79883E+02</wgt>
<wgt id='3405'>0.78976E+02</wgt>
<wgt id='3406'>0.79889E+02</wgt>
<wgt id='3407'>0.78657E+02</wgt>
<wgt id='3408'>0.79447E+02</wgt>
<wgt id='3409'>0.79252E+02</wgt>
<wgt id='3410'>0.79214E+02</wgt>
<wgt id='3411'>0.79954E+02</wgt>
<wgt id='3412'>0.79468E+02</wgt>
<wgt id='3413'>0.78421E+02</wgt>
<wgt id='3414'>0.77940E+02</wgt>
<wgt id='3415'>0.78459E+02</wgt>
<wgt id='3416'>0.78154E+02</wgt>
<wgt id='3417'>0.79088E+02</wgt>
<wgt id='3418'>0.77923E+02</wgt>
<wgt id='3419'>0.78020E+02</wgt>
<wgt id='3420'>0.78269E+02</wgt>
<wgt id='3421'>0.78129E+02</wgt>
<wgt id='3422'>0.78412E+02</wgt>
<wgt id='3423'>0.79511E+02</wgt>
<wgt id='3424'>0.79156E+02</wgt>
<wgt id='3425'>0.78103E+02</wgt>
<wgt id='3426'>0.78175E+02</wgt>
<wgt id='3427'>0.77727E+02</wgt>
<wgt id='3428'>0.79031E+02</wgt>
<wgt id='3429'>0.77848E+02</wgt>
<wgt id='3430'>0.78481E+02</wgt>
<wgt id='3431'>0.78973E+02</wgt>
<wgt id='3432'>0.79692E+02</wgt>
<wgt id='3433'>0.78177E+02</wgt>
<wgt id='3434'>0.79549E+02</wgt>
<wgt id='3435'>0.79491E+02</wgt>
<wgt id='3436'>0.78442E+02</wgt>
<wgt id='3437'>0.79570E+02</wgt>
<wgt id='3438'>0.77980E+02</wgt>
<wgt id='3439'>0.77249E+02</wgt>
<wgt id='3440'>0.78940E+02</wgt>
<wgt id='3441'>0.78698E+02</wgt>
<wgt id='3442'>0.77726E+02</wgt>
<wgt id='3443'>0.79060E+02</wgt>
<wgt id='3444'>0.77782E+02</wgt>
<wgt id='3445'>0.78074E+02</wgt>
<wgt id='3446'>0.78736E+02</wgt>
<wgt id='3447'>0.78779E+02</wgt>
<wgt id='3448'>0.79986E+02</wgt>
<wgt id='3449'>0.79101E+02</wgt>
<wgt id='3450'>0.78238E+02</wgt>
<wgt id='3451'>0.79446E+02</wgt>
<wgt id='3452'>0.78416E+02</wgt>
<wgt id='3453'>0.77337E+02</wgt>
<wgt id='3454'>0.78566E+02</wgt>
<wgt id='3455'>0.79348E+02</wgt>
<wgt id='3456'>0.78665E+02</wgt>
<wgt id='3457'>0.79022E+02</wgt>
<wgt id='3458'>0.78208E+02</wgt>
<wgt id='3459'>0.78604E+02</wgt>
<wgt id='3460'>0.78388E+02</wgt>
<wgt id='3461'>0.77619E+02</wgt>
<wgt id='3462'>0.78916E+02</wgt>
<wgt id='3463'>0.77547E+02</wgt>
<wgt id='3464'>0.78840E+02</wgt>
<wgt id='3465'>0.79339E+02</wgt>
<wgt id='3466'>0.79083E+02</wgt>
<wgt id='3467'>0.78210E+02</wgt>
<wgt id='3468'>0.78062E+02</wgt>
<wgt id='3469'>0.77785E+02</wgt>
<wgt id='3470'>0.78051E+02</wgt>
<wgt id='3471'>0.78256E+02</wgt>
<wgt id='3472'>0.77262E+02</wgt>
<wgt id='3473'>0.80106E+02</wgt>
<wgt id='3474'>0.77937E+02</wgt>
<wgt id='3475'>0.79143E+02</wgt>
<wgt id='3476'>0.78517E+02</wgt>
<wgt id='3477'>0.77644E+02</wgt>
<wgt id='3478'>0.79725E+02</wgt>
<wgt id='3479'>0.78565E+02</wgt>
<wgt id='3480'>0.78998E+02</wgt>
<wgt id='3481'>0.79439E+02</wgt>
<wgt id='3482'>0.78854E+02</wgt>
<wgt id='3483'>0.78438E+02</wgt>
<wgt id='3484'>0.77927E+02</wgt>
<wgt id='3485'>0.78087E+02</wgt>
<wgt id='3486'>0.76624E+02</wgt>
<wgt id='3487'>0.78036E+02</wgt>
<wgt id='3488'>0.78613E+02</wgt>
<wgt id='3489'>0.77561E+02</wgt>
<wgt id='3490'>0.79409E+02</wgt>
<wgt id='3491'>0.79985E+02</wgt>
<wgt id='3492'>0.78335E+02</wgt>
<wgt id='3493'>0.79766E+02</wgt>
<wgt id='3494'>0.76818E+02</wgt>
<wgt id='3495'>0.79247E+02</wgt>
<wgt id='3496'>0.77751E+02</wgt>
<wgt id='3497'>0.78378E+02</wgt>
<wgt id='3498'>0.79777E+02</wgt>
<wgt id='3499'>0.78211E+02</wgt>
<wgt id='3500'>0.80043E+02</wgt>
</rwgt>
</event>
<event>
     13 322200  8.11039E+01  1.34924E+02 -1.00000E+00  1.16802E-01
      21    -1     0     0   503   504  0.000000000E+00  0.000000000E+00  1.241002358E+02  1.241002358E+02  0.000000000E+00  0.00000E+00  9.000E+00
      21    -1     0     0   504   505  0.000000000E+00  0.000000000E+00 -1.195387391E+03  1.195387391E+03  0.000000000E+00  0.00000E+00  9.000E+00
       6     2     1     2   502     0 -6.992094431E+01  5.975138146E-01 -2.560783731E+02  3.174888899E+02  1.741659168E+02  0.00000E+00  9.000E+00
      -6     2     1     2     0   505 -6.171670737E+01 -3.019464847E+01 -8.438037714E+02  8.640779807E+02  1.729314414E+02  0.00000E+00  9.000E+00
      21     1     1     2   503   502  1.316376517E+02  2.959713466E+01  2.859498876E+01  1.379207566E+02  5.068848521E-06  0.00000E+00  9.000E+00
      24     2     3     3     0     0 -3.722858728E+01  6.393054494E+01 -1.152332553E+02  1.595559489E+02  8.189209622E+01  0.00000E+00  9.000E+00
       5     1     3     3   502     0 -3.269235703E+01 -6.333303112E+01 -1.408451178E+02  1.579329409E+02  5.060000000E+00  0.00000E+00 -1.000E+00
     -24     2     4     4     0     0 -1.021140199E+02 -1.431926725E+01 -4.687200659E+02  4.864573241E+02  7.943496418E+01  0.00000E+00  9.000E+00
      -5     1     4     4     0   505  4.039731250E+01 -1.587538122E+01 -3.750837055E+02  3.776206566E+02  5.060000000E+00  0.00000E+00  1.000E+00
     -11     1     6     6     0     0 -5.752828268E+01  4.611224292E+01 -5.036453583E+01  8.928845796E+01  5.100000000E-04  0.00000E+00  1.000E+00
      12     1     6     6     0     0  2.029969540E+01  1.781830202E+01 -6.486871949E+01  7.026749098E+01  0.000000000E+00  0.00000E+00 -1.000E+00
      11     1     8     8     0     0 -7.924690716E+01  1.701581008E+01 -3.941853851E+02  4.024322650E+02  5.100000000E-04  0.00000E+00 -1.000E+00
     -12     1     8     8     0     0 -2.286711271E+01 -3.133507733E+01 -7.453468071E+01  8.402505902E+01  0.000000000E+00  0.00000E+00  1.000E+00
#rwgt            1           1   294.39418023352169               10       12326           0
<rwgt>
<wgt id='1001'>0.81104E+02</wgt>
<wgt id='1002'>0.66098E+02</wgt>
<wgt id='1003'>0.10061E+03</wgt>
<wgt id='1004'>0.83134E+02</wgt>
<wgt id='1005'>0.70557E+02</wgt>
<wgt id='1006'>0.99131E+02</wgt>
<wgt id='1007'>0.71847E+02</wgt>
<wgt id='1008'>0.53612E+02</wgt>
<wgt id='1009'>0.96172E+02</wgt>
<wgt id='2000'>0.81104E+02</wgt>
<wgt id='2001'>0.80908E+02</wgt>
<wgt id='2002'>0.81177E+02</wgt>
<wgt id='2003'>0.81263E+02</wgt>
<wgt id='2004'>0.81494E+02</wgt>
<wgt id='2005'>0.80741E+02</wgt>
<wgt id='2006'>0.81291E+02</wgt>
<wgt id='2007'>0.81284E+02</wgt>
<wgt id='2008'>0.80993E+02</wgt>
<wgt id='2009'>0.81390E+02</wgt>
<wgt id='2010'>0.81095E+02</wgt>
<wgt id='2011'>0.81363E+02</wgt>
<wgt id='2012'>0.81391E+02</wgt>
<wgt id='2013'>0.80900E+02</wgt>
<wgt id='2014'>0.80866E+02</wgt>
<wgt id='2015'>0.81069E+02</wgt>
<wgt id='2016'>0.80841E+02</wgt>
<wgt id='2017'>0.80991E+02</wgt>
<wgt id='2018'>0.80950E+02</wgt>
<wgt id='2019'>0.80410E+02</wgt>
<wgt id='2020'>0.80945E+02</wgt>
<wgt id='2021'>0.81347E+02</wgt>
<wgt id='2022'>0.81123E+02</wgt>
<wgt id='2023'>0.81124E+02</wgt>
<wgt id='2024'>0.80518E+02</wgt>
<wgt id='2025'>0.81372E+02</wgt>
<wgt id='2026'>0.81229E+02</wgt>
<wgt id='2027'>0.81750E+02</wgt>
<wgt id='2028'>0.80504E+02</wgt>
<wgt id='2029'>0.80980E+02</wgt>
<wgt id='2030'>0.81334E+02</wgt>
<wgt id='2031'>0.80800E+02</wgt>
<wgt id='2032'>0.80941E+02</wgt>
<wgt id='2033'>0.80909E+02</wgt>
<wgt id='2034'>0.80767E+02</wgt>
<wgt id='2035'>0.81243E+02</wgt>
<wgt id='2036'>0.81160E+02</wgt>
<wgt id='2037'>0.80923E+02</wgt>
<wgt id='2038'>0.81032E+02</wgt>
<wgt id='2039'>0.80997E+02</wgt>
<wgt id='2040'>0.80897E+02</wgt>
<wgt id='2041'>0.80955E+02</wgt>
<wgt id='2042'>0.81372E+02</wgt>
<wgt id='2043'>0.81166E+02</wgt>
<wgt id='2044'>0.81186E+02</wgt>
<wgt id='2045'>0.81137E+02</wgt>
<wgt id='2046'>0.80928E+02</wgt>
<wgt id='2047'>0.81175E+02</wgt>
<wgt id='2048'>0.81072E+02</wgt>
<wgt id='2049'>0.80976E+02</wgt>
<wgt id='2050'>0.80979E+02</wgt>
<wgt id='2051'>0.80978E+02</wgt>
<wgt id='2052'>0.81270E+02</wgt>
<wgt id='2053'>0.81091E+02</wgt>
<wgt id='2054'>0.81047E+02</wgt>
<wgt id='2055'>0.81019E+02</wgt>
<wgt id='2056'>0.81057E+02</wgt>
<wgt id='2057'>0.81109E+02</wgt>
<wgt id='2058'>0.81188E+02</wgt>
<wgt id='2059'>0.81079E+02</wgt>
<wgt id='2060'>0.81071E+02</wgt>
<wgt id='2061'>0.81027E+02</wgt>
<wgt id='2062'>0.81178E+02</wgt>
<wgt id='2063'>0.81079E+02</wgt>
<wgt id='2064'>0.81128E+02</wgt>
<wgt id='2065'>0.81190E+02</wgt>
<wgt id='2066'>0.81017E+02</wgt>
<wgt id='2067'>0.81037E+02</wgt>
<wgt id='2068'>0.81222E+02</wgt>
<wgt id='2069'>0.81078E+02</wgt>
<wgt id='2070'>0.81100E+02</wgt>
<wgt id='2071'>0.81059E+02</wgt>
<wgt id='2072'>0.81098E+02</wgt>
<wgt id='2073'>0.81132E+02</wgt>
<wgt id='2074'>0.81065E+02</wgt>
<wgt id='2075'>0.81100E+02</wgt>
<wgt id='2076'>0.81071E+02</wgt>
<wgt id='2077'>0.81133E+02</wgt>
<wgt id='2078'>0.81123E+02</wgt>
<wgt id='2079'>0.81078E+02</wgt>
<wgt id='2080'>0.81121E+02</wgt>
<wgt id='2081'>0.81093E+02</wgt>
<wgt id='2082'>0.81104E+02</wgt>
<wgt id='2083'>0.81168E+02</wgt>
<wgt id='2084'>0.81089E+02</wgt>
<wgt id='2085'>0.81130E+02</wgt>
<wgt id='2086'>0.81085E+02</wgt>
<wgt id='2087'>0.81104E+02</wgt>
<wgt id='2088'>0.81107E+02</wgt>
<wgt id='2089'>0.81091E+02</wgt>
<wgt id='2090'>0.81129E+02</wgt>
<wgt id='2091'>0.81119E+02</wgt>
<wgt id='2092'>0.81155E+02</wgt>
<wgt id='2093'>0.81062E+02</wgt>
<wgt id='2094'>0.81130E+02</wgt>
<wgt id='2095'>0.81143E+02</wgt>
<wgt id='2096'>0.81076E+02</wgt>
<wgt id='2097'>0.81149E+02</wgt>
<wgt id='2098'>0.81082E+02</wgt>
<wgt id='2099'>0.81122E+02</wgt>
<wgt id='2100'>0.81104E+02</wgt>
<wgt id='2101'>0.80121E+02</wgt>
<wgt id='2102'>0.81933E+02</wgt>
<wgt id='2200'>0.80763E+02</wgt>
<wgt id='2201'>0.74710E+02</wgt>
<wgt id='2202'>0.76034E+02</wgt>
<wgt id='2203'>0.77413E+02</wgt>
<wgt id='2204'>0.77961E+02</wgt>
<wgt id='2205'>0.80031E+02</wgt>
<wgt id='2206'>0.81598E+02</wgt>
<wgt id='2207'>0.83302E+02</wgt>
<wgt id='2208'>0.85082E+02</wgt>
<wgt id='2300'>0.86732E+02</wgt>
<wgt id='2301'>0.86890E+02</wgt>
<wgt id='2302'>0.86574E+02</wgt>
<wgt id='2303'>0.86722E+02</wgt>
<wgt id='2304'>0.87019E+02</wgt>
<wgt id='2305'>0.86764E+02</wgt>
<wgt id='2306'>0.86753E+02</wgt>
<wgt id='2307'>0.86594E+02</wgt>
<wgt id='2308'>0.86547E+02</wgt>
<wgt id='2309'>0.86372E+02</wgt>
<wgt id='2310'>0.86412E+02</wgt>
<wgt id='2311'>0.86922E+02</wgt>
<wgt id='2312'>0.87022E+02</wgt>
<wgt id='2313'>0.86549E+02</wgt>
<wgt id='2314'>0.86659E+02</wgt>
<wgt id='2315'>0.86874E+02</wgt>
<wgt id='2316'>0.86829E+02</wgt>
<wgt id='2317'>0.86705E+02</wgt>
<wgt id='2318'>0.86724E+02</wgt>
<wgt id='2319'>0.86828E+02</wgt>
<wgt id='2320'>0.87020E+02</wgt>
<wgt id='2321'>0.87036E+02</wgt>
<wgt id='2322'>0.86631E+02</wgt>
<wgt id='2323'>0.86713E+02</wgt>
<wgt id='2324'>0.86908E+02</wgt>
<wgt id='2325'>0.86749E+02</wgt>
<wgt id='2326'>0.86510E+02</wgt>
<wgt id='2327'>0.86815E+02</wgt>
<wgt id='2328'>0.86833E+02</wgt>
<wgt id='2329'>0.86819E+02</wgt>
<wgt id='2330'>0.87088E+02</wgt>
<wgt id='2331'>0.86857E+02</wgt>
<wgt id='2332'>0.86414E+02</wgt>
<wgt id='2333'>0.86396E+02</wgt>
<wgt id='2334'>0.86694E+02</wgt>
<wgt id='2335'>0.85903E+02</wgt>
<wgt id='2336'>0.86718E+02</wgt>
<wgt id='2337'>0.87250E+02</wgt>
<wgt id='2338'>0.86748E+02</wgt>
<wgt id='2339'>0.86732E+02</wgt>
<wgt id='2340'>0.87268E+02</wgt>
<wgt id='2341'>0.86969E+02</wgt>
<wgt id='2342'>0.86495E+02</wgt>
<wgt id='2343'>0.86527E+02</wgt>
<wgt id='2344'>0.86702E+02</wgt>
<wgt id='2345'>0.86620E+02</wgt>
<wgt id='2346'>0.87211E+02</wgt>
<wgt id='2347'>0.86786E+02</wgt>
<wgt id='2348'>0.86749E+02</wgt>
<wgt id='2349'>0.86772E+02</wgt>
<wgt id='2350'>0.86341E+02</wgt>
<wgt id='2351'>0.86886E+02</wgt>
<wgt id='2352'>0.86545E+02</wgt>
<wgt id='2353'>0.86689E+02</wgt>
<wgt id='2354'>0.86869E+02</wgt>
<wgt id='2355'>0.86511E+02</wgt>
<wgt id='2356'>0.86628E+02</wgt>
<wgt id='2357'>0.86790E+02</wgt>
<wgt id='2358'>0.86647E+02</wgt>
<wgt id='2359'>0.86642E+02</wgt>
<wgt id='2360'>0.86935E+02</wgt>
<wgt id='2361'>0.86713E+02</wgt>
<wgt id='2362'>0.86860E+02</wgt>
<wgt id='2363'>0.86497E+02</wgt>
<wgt id='2364'>0.86708E+02</wgt>
<wgt id='2365'>0.86542E+02</wgt>
<wgt id='2366'>0.86772E+02</wgt>
<wgt id='2367'>0.86507E+02</wgt>
<wgt id='2368'>0.86806E+02</wgt>
<wgt id='2369'>0.86628E+02</wgt>
<wgt id='2370'>0.86704E+02</wgt>
<wgt id='2371'>0.86640E+02</wgt>
<wgt id='2372'>0.86771E+02</wgt>
<wgt id='2373'>0.86723E+02</wgt>
<wgt id='2374'>0.86892E+02</wgt>
<wgt id='2375'>0.86774E+02</wgt>
<wgt id='2376'>0.86765E+02</wgt>
<wgt id='2377'>0.86803E+02</wgt>
<wgt id='2378'>0.86794E+02</wgt>
<wgt id='2379'>0.86627E+02</wgt>
<wgt id='2380'>0.86667E+02</wgt>
<wgt id='2381'>0.86748E+02</wgt>
<wgt id='2382'>0.86758E+02</wgt>
<wgt id='2383'>0.86602E+02</wgt>
<wgt id='2384'>0.86695E+02</wgt>
<wgt id='2385'>0.86793E+02</wgt>
<wgt id='2386'>0.86671E+02</wgt>
<wgt id='2387'>0.86673E+02</wgt>
<wgt id='2388'>0.86677E+02</wgt>
<wgt id='2389'>0.86710E+02</wgt>
<wgt id='2390'>0.86769E+02</wgt>
<wgt id='2391'>0.86716E+02</wgt>
<wgt id='2392'>0.86727E+02</wgt>
<wgt id='2393'>0.86763E+02</wgt>
<wgt id='2394'>0.86744E+02</wgt>
<wgt id='2395'>0.86732E+02</wgt>
<wgt id='2396'>0.86727E+02</wgt>
<wgt id='2397'>0.86734E+02</wgt>
<wgt id='2398'>0.86709E+02</wgt>
<wgt id='2399'>0.86757E+02</wgt>
<wgt id='2400'>0.86771E+02</wgt>
<wgt id='2401'>0.85845E+02</wgt>
<wgt id='2402'>0.88188E+02</wgt>
<wgt id='2500'>0.83445E+02</wgt>
<wgt id='2501'>0.87303E+02</wgt>
<wgt id='2600'>0.80692E+02</wgt>
<wgt id='2601'>0.80240E+02</wgt>
<wgt id='2602'>0.81000E+02</wgt>
<wgt id='2603'>0.80692E+02</wgt>
<wgt id='2604'>0.80871E+02</wgt>
<wgt id='2605'>0.80644E+02</wgt>
<wgt id='2606'>0.80899E+02</wgt>
<wgt id='2607'>0.80753E+02</wgt>
<wgt id='2608'>0.80928E+02</wgt>
<wgt id='2609'>0.80660E+02</wgt>
<wgt id='2610'>0.80652E+02</wgt>
<wgt id='2611'>0.80717E+02</wgt>
<wgt id='2612'>0.80444E+02</wgt>
<wgt id='2613'>0.80750E+02</wgt>
<wgt id='2614'>0.80571E+02</wgt>
<wgt id='2615'>0.80581E+02</wgt>
<wgt id='2616'>0.80817E+02</wgt>
<wgt id='2617'>0.80537E+02</wgt>
<wgt id='2618'>0.80918E+02</wgt>
<wgt id='2619'>0.80755E+02</wgt>
<wgt id='2620'>0.80385E+02</wgt>
<wgt id='2621'>0.80892E+02</wgt>
<wgt id='2622'>0.81049E+02</wgt>
<wgt id='2623'>0.80635E+02</wgt>
<wgt id='2624'>0.80577E+02</wgt>
<wgt id='2625'>0.80937E+02</wgt>
<wgt id='2626'>0.80823E+02</wgt>
<wgt id='2627'>0.80888E+02</wgt>
<wgt id='2628'>0.80582E+02</wgt>
<wgt id='2629'>0.80867E+02</wgt>
<wgt id='2630'>0.81036E+02</wgt>
<wgt id='2631'>0.80627E+02</wgt>
<wgt id='2632'>0.80384E+02</wgt>
<wgt id='2633'>0.80603E+02</wgt>
<wgt id='2634'>0.80596E+02</wgt>
<wgt id='2635'>0.80471E+02</wgt>
<wgt id='2636'>0.80774E+02</wgt>
<wgt id='2637'>0.80643E+02</wgt>
<wgt id='2638'>0.80642E+02</wgt>
<wgt id='2639'>0.80696E+02</wgt>
<wgt id='2640'>0.80700E+02</wgt>
<wgt id='2641'>0.80588E+02</wgt>
<wgt id='2642'>0.80690E+02</wgt>
<wgt id='2643'>0.80604E+02</wgt>
<wgt id='2644'>0.80673E+02</wgt>
<wgt id='2645'>0.80614E+02</wgt>
<wgt id='2646'>0.80692E+02</wgt>
<wgt id='2647'>0.80685E+02</wgt>
<wgt id='2648'>0.80696E+02</wgt>
<wgt id='2649'>0.80738E+02</wgt>
<wgt id='2650'>0.80708E+02</wgt>
<wgt id='2651'>0.79748E+02</wgt>
<wgt id='2652'>0.81189E+02</wgt>
<wgt id='2700'>0.79068E+02</wgt>
<wgt id='2701'>0.79748E+02</wgt>
<wgt id='2702'>0.80240E+02</wgt>
<wgt id='2703'>0.81201E+02</wgt>
<wgt id='2704'>0.81189E+02</wgt>
<wgt id='2705'>0.82276E+02</wgt>
<wgt id='2800'>0.83206E+02</wgt>
<wgt id='4000'>0.84878E+02</wgt>
<wgt id='4001'>0.85080E+02</wgt>
<wgt id='4002'>0.85078E+02</wgt>
<wgt id='4003'>0.83310E+02</wgt>
<wgt id='4004'>0.86680E+02</wgt>
<wgt id='4005'>0.85763E+02</wgt>
<wgt id='4006'>0.84368E+02</wgt>
<wgt id='4007'>0.84689E+02</wgt>
<wgt id='4008'>0.85148E+02</wgt>
<wgt id='4009'>0.83872E+02</wgt>
<wgt id='4010'>0.85277E+02</wgt>
<wgt id='4011'>0.85605E+02</wgt>
<wgt id='4012'>0.83911E+02</wgt>
<wgt id='4013'>0.84529E+02</wgt>
<wgt id='4014'>0.85533E+02</wgt>
<wgt id='4015'>0.86077E+02</wgt>
<wgt id='4016'>0.85732E+02</wgt>
<wgt id='4017'>0.85164E+02</wgt>
<wgt id='4018'>0.84612E+02</wgt>
<wgt id='4019'>0.84136E+02</wgt>
<wgt id='4020'>0.86274E+02</wgt>
<wgt id='4021'>0.85231E+02</wgt>
<wgt id='4022'>0.84285E+02</wgt>
<wgt id='4023'>0.85476E+02</wgt>
<wgt id='4024'>0.85438E+02</wgt>
<wgt id='4025'>0.84561E+02</wgt>
<wgt id='4026'>0.85783E+02</wgt>
<wgt id='4027'>0.86215E+02</wgt>
<wgt id='4028'>0.83887E+02</wgt>
<wgt id='4029'>0.87173E+02</wgt>
<wgt id='4030'>0.83795E+02</wgt>
<wgt id='4031'>0.85145E+02</wgt>
<wgt id='4032'>0.86684E+02</wgt>
<wgt id='4033'>0.85808E+02</wgt>
<wgt id='4034'>0.84552E+02</wgt>
<wgt id='4035'>0.84133E+02</wgt>
<wgt id='4036'>0.85685E+02</wgt>
<wgt id='4037'>0.88092E+02</wgt>
<wgt id='4038'>0.82375E+02</wgt>
<wgt id='4039'>0.86403E+02</wgt>
<wgt id='4040'>0.83807E+02</wgt>
<wgt id='4041'>0.85998E+02</wgt>
<wgt id='4042'>0.83910E+02</wgt>
<wgt id='4043'>0.85718E+02</wgt>
<wgt id='4044'>0.83932E+02</wgt>
<wgt id='4045'>0.83841E+02</wgt>
<wgt id='4046'>0.85474E+02</wgt>
<wgt id='4047'>0.85890E+02</wgt>
<wgt id='4048'>0.85224E+02</wgt>
<wgt id='4049'>0.85213E+02</wgt>
<wgt id='4050'>0.85044E+02</wgt>
<wgt id='4051'>0.84495E+02</wgt>
<wgt id='4052'>0.85633E+02</wgt>
<wgt id='4053'>0.84319E+02</wgt>
<wgt id='4054'>0.85231E+02</wgt>
<wgt id='4055'>0.85543E+02</wgt>
<wgt id='4056'>0.84619E+02</wgt>
<wgt id='4057'>0.84476E+02</wgt>
<wgt id='4058'>0.85195E+02</wgt>
<wgt id='4100'>0.85476E+02</wgt>
<wgt id='4101'>0.85107E+02</wgt>
<wgt id='4102'>0.84763E+02</wgt>
<wgt id='4103'>0.84726E+02</wgt>
<wgt id='4200'>0.84528E+02</wgt>
<wgt id='4201'>0.84517E+02</wgt>
<wgt id='4202'>0.84867E+02</wgt>
<wgt id='4203'>0.84670E+02</wgt>
<wgt id='4204'>0.84201E+02</wgt>
<wgt id='4205'>0.84541E+02</wgt>
<wgt id='4206'>0.84841E+02</wgt>
<wgt id='4207'>0.85653E+02</wgt>
<wgt id='4208'>0.83994E+02</wgt>
<wgt id='4209'>0.83786E+02</wgt>
<wgt id='4210'>0.84975E+02</wgt>
<wgt id='4211'>0.84582E+02</wgt>
<wgt id='4212'>0.84527E+02</wgt>
<wgt id='4213'>0.84617E+02</wgt>
<wgt id='4214'>0.84470E+02</wgt>
<wgt id='4215'>0.84601E+02</wgt>
<wgt id='4216'>0.84818E+02</wgt>
<wgt id='4217'>0.84915E+02</wgt>
<wgt id='4218'>0.84177E+02</wgt>
<wgt id='4219'>0.85177E+02</wgt>
<wgt id='4220'>0.84231E+02</wgt>
<wgt id='4221'>0.84460E+02</wgt>
<wgt id='4222'>0.84889E+02</wgt>
<wgt id='4223'>0.82589E+02</wgt>
<wgt id='4224'>0.85120E+02</wgt>
<wgt id='4225'>0.84380E+02</wgt>
<wgt id='4226'>0.85255E+02</wgt>
<wgt id='4227'>0.84872E+02</wgt>
<wgt id='4228'>0.84284E+02</wgt>
<wgt id='4229'>0.83502E+02</wgt>
<wgt id='4230'>0.85648E+02</wgt>
<wgt id='4231'>0.85084E+02</wgt>
<wgt id='4232'>0.83745E+02</wgt>
<wgt id='4233'>0.84662E+02</wgt>
<wgt id='4234'>0.83783E+02</wgt>
<wgt id='4235'>0.85762E+02</wgt>
<wgt id='4236'>0.83424E+02</wgt>
<wgt id='4237'>0.86600E+02</wgt>
<wgt id='4238'>0.81902E+02</wgt>
<wgt id='4239'>0.83928E+02</wgt>
<wgt id='4240'>0.85697E+02</wgt>
<wgt id='4241'>0.84923E+02</wgt>
<wgt id='4242'>0.84219E+02</wgt>
<wgt id='4243'>0.85463E+02</wgt>
<wgt id='4244'>0.83486E+02</wgt>
<wgt id='4245'>0.85367E+02</wgt>
<wgt id='4246'>0.83263E+02</wgt>
<wgt id='4247'>0.83417E+02</wgt>
<wgt id='4248'>0.85257E+02</wgt>
<wgt id='4249'>0.85129E+02</wgt>
<wgt id='4250'>0.83826E+02</wgt>
<wgt id='4251'>0.86329E+02</wgt>
<wgt id='4252'>0.83377E+02</wgt>
<wgt id='4253'>0.85704E+02</wgt>
<wgt id='4254'>0.83250E+02</wgt>
<wgt id='4255'>0.86562E+02</wgt>
<wgt id='4256'>0.83754E+02</wgt>
<wgt id='4257'>0.83320E+02</wgt>
<wgt id='4258'>0.84888E+02</wgt>
<wgt id='4300'>0.83690E+02</wgt>
<wgt id='4301'>0.86186E+02</wgt>
<wgt id='5000'>0.84390E+02</wgt>
<wgt id='5001'>0.84468E+02</wgt>
<wgt id='5002'>0.84290E+02</wgt>
<wgt id='5003'>0.84398E+02</wgt>
<wgt id='5004'>0.84382E+02</wgt>
<wgt id='5005'>0.84457E+02</wgt>
<wgt id='5006'>0.84280E+02</wgt>
<wgt id='5007'>0.84528E+02</wgt>
<wgt id='5008'>0.84278E+02</wgt>
<wgt id='5009'>0.84495E+02</wgt>
<wgt id='5010'>0.84282E+02</wgt>
<wgt id='5011'>0.84672E+02</wgt>
<wgt id='5012'>0.84119E+02</wgt>
<wgt id='5013'>0.84450E+02</wgt>
<wgt id='5014'>0.84347E+02</wgt>
<wgt id='5015'>0.84032E+02</wgt>
<wgt id='5016'>0.84032E+02</wgt>
<wgt id='5017'>0.84649E+02</wgt>
<wgt id='5018'>0.84215E+02</wgt>
<wgt id='5019'>0.84607E+02</wgt>
<wgt id='5020'>0.84092E+02</wgt>
<wgt id='5021'>0.84487E+02</wgt>
<wgt id='5022'>0.84237E+02</wgt>
<wgt id='5023'>0.84364E+02</wgt>
<wgt id='5024'>0.84453E+02</wgt>
<wgt id='5025'>0.84231E+02</wgt>
<wgt id='5026'>0.84567E+02</wgt>
<wgt id='5027'>0.84445E+02</wgt>
<wgt id='5028'>0.84243E+02</wgt>
<wgt id='5029'>0.85294E+02</wgt>
<wgt id='5030'>0.83882E+02</wgt>
<wgt id='5031'>0.83846E+02</wgt>
<wgt id='5032'>0.86057E+02</wgt>
<wgt id='5033'>0.84325E+02</wgt>
<wgt id='5034'>0.84459E+02</wgt>
<wgt id='5035'>0.84398E+02</wgt>
<wgt id='5036'>0.84380E+02</wgt>
<wgt id='5037'>0.84110E+02</wgt>
<wgt id='5038'>0.84549E+02</wgt>
<wgt id='5039'>0.84498E+02</wgt>
<wgt id='5040'>0.84123E+02</wgt>
<wgt id='5041'>0.83827E+02</wgt>
<wgt id='5042'>0.84989E+02</wgt>
<wgt id='5043'>0.84515E+02</wgt>
<wgt id='5044'>0.84302E+02</wgt>
<wgt id='5045'>0.85041E+02</wgt>
<wgt id='5046'>0.83106E+02</wgt>
<wgt id='5047'>0.84503E+02</wgt>
<wgt id='5048'>0.83890E+02</wgt>
<wgt id='5049'>0.84227E+02</wgt>
<wgt id='5050'>0.84726E+02</wgt>
<wgt id='5051'>0.84702E+02</wgt>
<wgt id='5052'>0.84184E+02</wgt>
<wgt id='5053'>0.84679E+02</wgt>
<wgt id='5054'>0.84574E+02</wgt>
<wgt id='5055'>0.84419E+02</wgt>
<wgt id='5056'>0.84403E+02</wgt>
<wgt id='5057'>0.84038E+02</wgt>
<wgt id='5058'>0.84638E+02</wgt>
<wgt id='5059'>0.84163E+02</wgt>
<wgt id='5060'>0.84498E+02</wgt>
<wgt id='5061'>0.84475E+02</wgt>
<wgt id='5062'>0.84819E+02</wgt>
<wgt id='5063'>0.84534E+02</wgt>
<wgt id='5064'>0.84681E+02</wgt>
<wgt id='5100'>0.84390E+02</wgt>
<wgt id='5101'>0.84374E+02</wgt>
<wgt id='6000'>0.83447E+02</wgt>
<wgt id='6001'>0.82897E+02</wgt>
<wgt id='6002'>0.82611E+02</wgt>
<wgt id='6003'>0.83309E+02</wgt>
<wgt id='6004'>0.83990E+02</wgt>
<wgt id='6005'>0.82832E+02</wgt>
<wgt id='6006'>0.83324E+02</wgt>
<wgt id='6007'>0.82763E+02</wgt>
<wgt id='6008'>0.83974E+02</wgt>
<wgt id='6009'>0.83093E+02</wgt>
<wgt id='6010'>0.84533E+02</wgt>
<wgt id='6011'>0.83474E+02</wgt>
<wgt id='6012'>0.83513E+02</wgt>
<wgt id='6013'>0.82987E+02</wgt>
<wgt id='6014'>0.83031E+02</wgt>
<wgt id='6015'>0.82848E+02</wgt>
<wgt id='6016'>0.84113E+02</wgt>
<wgt id='6017'>0.82878E+02</wgt>
<wgt id='6018'>0.82658E+02</wgt>
<wgt id='6019'>0.83559E+02</wgt>
<wgt id='6020'>0.83640E+02</wgt>
<wgt id='6021'>0.83297E+02</wgt>
<wgt id='6022'>0.83972E+02</wgt>
<wgt id='6023'>0.83333E+02</wgt>
<wgt id='6024'>0.83563E+02</wgt>
<wgt id='6025'>0.83992E+02</wgt>
<wgt id='6026'>0.83452E+02</wgt>
<wgt id='6027'>0.83489E+02</wgt>
<wgt id='6028'>0.82890E+02</wgt>
<wgt id='6029'>0.83109E+02</wgt>
<wgt id='6030'>0.82281E+02</wgt>
<wgt id='6031'>0.83161E+02</wgt>
<wgt id='6032'>0.83429E+02</wgt>
<wgt id='6033'>0.83381E+02</wgt>
<wgt id='6034'>0.83906E+02</wgt>
<wgt id='6035'>0.83498E+02</wgt>
<wgt id='6036'>0.84422E+02</wgt>
<wgt id='6037'>0.83370E+02</wgt>
<wgt id='6038'>0.83266E+02</wgt>
<wgt id='6039'>0.83725E+02</wgt>
<wgt id='6040'>0.83428E+02</wgt>
<wgt id='6041'>0.82773E+02</wgt>
<wgt id='6042'>0.84460E+02</wgt>
<wgt id='7000'>0.81078E+02</wgt>
<wgt id='7001'>0.80904E+02</wgt>
<wgt id='7002'>0.81059E+02</wgt>
<wgt id='7003'>0.81045E+02</wgt>
<wgt id='7004'>0.80918E+02</wgt>
<wgt id='7005'>0.81010E+02</wgt>
<wgt id='7006'>0.80953E+02</wgt>
<wgt id='7007'>0.81329E+02</wgt>
<wgt id='7008'>0.80643E+02</wgt>
<wgt id='7009'>0.80705E+02</wgt>
<wgt id='7010'>0.81268E+02</wgt>
<wgt id='7011'>0.81083E+02</wgt>
<wgt id='7012'>0.80887E+02</wgt>
<wgt id='7013'>0.80930E+02</wgt>
<wgt id='7014'>0.81033E+02</wgt>
<wgt id='7015'>0.81268E+02</wgt>
<wgt id='7016'>0.80661E+02</wgt>
<wgt id='7017'>0.80697E+02</wgt>
<wgt id='7018'>0.81269E+02</wgt>
<wgt id='7019'>0.81468E+02</wgt>
<wgt id='7020'>0.80504E+02</wgt>
<wgt id='7021'>0.82512E+02</wgt>
<wgt id='7022'>0.79540E+02</wgt>
<wgt id='7023'>0.79600E+02</wgt>
<wgt id='7024'>0.82400E+02</wgt>
<wgt id='7025'>0.79357E+02</wgt>
<wgt id='7026'>0.82614E+02</wgt>
<wgt id='7027'>0.80150E+02</wgt>
<wgt id='7028'>0.81877E+02</wgt>
<wgt id='8000'>0.81618E+02</wgt>
<wgt id='8001'>0.81612E+02</wgt>
<wgt id='8002'>0.81643E+02</wgt>
<wgt id='8003'>0.81616E+02</wgt>
<wgt id='8004'>0.81615E+02</wgt>
<wgt id='8005'>0.81436E+02</wgt>
<wgt id='8006'>0.81691E+02</wgt>
<wgt id='8007'>0.81714E+02</wgt>
<wgt id='8008'>0.81750E+02</wgt>
<wgt id='8009'>0.81882E+02</wgt>
<wgt id='8010'>0.81574E+02</wgt>
<wgt id='8011'>0.81627E+02</wgt>
<wgt id='8012'>0.81430E+02</wgt>
<wgt id='8013'>0.81498E+02</wgt>
<wgt id='8014'>0.81763E+02</wgt>
<wgt id='8015'>0.81531E+02</wgt>
<wgt id='8016'>0.81739E+02</wgt>
<wgt id='8017'>0.81800E+02</wgt>
<wgt id='8018'>0.81895E+02</wgt>
<wgt id='8019'>0.81340E+02</wgt>
<wgt id='8020'>0.82104E+02</wgt>
<wgt id='8021'>0.81425E+02</wgt>
<wgt id='8022'>0.82521E+02</wgt>
<wgt id='8023'>0.81183E+02</wgt>
<wgt id='8024'>0.80916E+02</wgt>
<wgt id='8025'>0.80975E+02</wgt>
<wgt id='8026'>0.81553E+02</wgt>
<wgt id='8027'>0.81823E+02</wgt>
<wgt id='8028'>0.81597E+02</wgt>
<wgt id='8029'>0.84267E+02</wgt>
<wgt id='3000'>0.81104E+02</wgt>
<wgt id='3001'>0.82912E+02</wgt>
<wgt id='3002'>0.80232E+02</wgt>
<wgt id='3003'>0.80563E+02</wgt>
<wgt id='3004'>0.81319E+02</wgt>
<wgt id='3005'>0.83255E+02</wgt>
<wgt id='3006'>0.79157E+02</wgt>
<wgt id='3007'>0.78746E+02</wgt>
<wgt id='3008'>0.78152E+02</wgt>
<wgt id='3009'>0.79620E+02</wgt>
<wgt id='3010'>0.85964E+02</wgt>
<wgt id='3011'>0.82534E+02</wgt>
<wgt id='3012'>0.78520E+02</wgt>
<wgt id='3013'>0.81528E+02</wgt>
<wgt id='3014'>0.80987E+02</wgt>
<wgt id='3015'>0.79825E+02</wgt>
<wgt id='3016'>0.80606E+02</wgt>
<wgt id='3017'>0.80697E+02</wgt>
<wgt id='3018'>0.79104E+02</wgt>
<wgt id='3019'>0.81033E+02</wgt>
<wgt id='3020'>0.81408E+02</wgt>
<wgt id='3021'>0.79241E+02</wgt>
<wgt id='3022'>0.80192E+02</wgt>
<wgt id='3023'>0.79905E+02</wgt>
<wgt id='3024'>0.82039E+02</wgt>
<wgt id='3025'>0.79392E+02</wgt>
<wgt id='3026'>0.80474E+02</wgt>
<wgt id='3027'>0.84080E+02</wgt>
<wgt id='3028'>0.76248E+02</wgt>
<wgt id='3029'>0.80884E+02</wgt>
<wgt id='3030'>0.79456E+02</wgt>
<wgt id='3031'>0.83351E+02</wgt>
<wgt id='3032'>0.78050E+02</wgt>
<wgt id='3033'>0.79681E+02</wgt>
<wgt id='3034'>0.82118E+02</wgt>
<wgt id='3035'>0.84047E+02</wgt>
<wgt id='3036'>0.81906E+02</wgt>
<wgt id='3037'>0.80968E+02</wgt>
<wgt id='3038'>0.82820E+02</wgt>
<wgt id='3039'>0.79467E+02</wgt>
<wgt id='3040'>0.80044E+02</wgt>
<wgt id='3041'>0.81353E+02</wgt>
<wgt id='3042'>0.80367E+02</wgt>
<wgt id='3043'>0.82692E+02</wgt>
<wgt id='3044'>0.81490E+02</wgt>
<wgt id='3045'>0.80837E+02</wgt>
<wgt id='3046'>0.81787E+02</wgt>
<wgt id='3047'>0.82075E+02</wgt>
<wgt id='3048'>0.83849E+02</wgt>
<wgt id='3049'>0.81733E+02</wgt>
<wgt id='3050'>0.83360E+02</wgt>
<wgt id='3051'>0.79166E+02</wgt>
<wgt id='3052'>0.80023E+02</wgt>
<wgt id='3053'>0.82908E+02</wgt>
<wgt id='3054'>0.77140E+02</wgt>
<wgt id='3055'>0.82556E+02</wgt>
<wgt id='3056'>0.80488E+02</wgt>
<wgt id='3057'>0.79926E+02</wgt>
<wgt id='3058'>0.84414E+02</wgt>
<wgt id='3059'>0.78691E+02</wgt>
<wgt id='3060'>0.80250E+02</wgt>
<wgt id='3061'>0.80246E+02</wgt>
<wgt id='3062'>0.82245E+02</wgt>
<wgt id='3063'>0.84550E+02</wgt>
<wgt id='3064'>0.83429E+02</wgt>
<wgt id='3065'>0.78814E+02</wgt>
<wgt id='3066'>0.82203E+02</wgt>
<wgt id='3067'>0.80413E+02</wgt>
<wgt id='3068'>0.79414E+02</wgt>
<wgt id='3069'>0.80463E+02</wgt>
<wgt id='3070'>0.82704E+02</wgt>
<wgt id='3071'>0.80979E+02</wgt>
<wgt id='3072'>0.82426E+02</wgt>
<wgt id='3073'>0.79958E+02</wgt>
<wgt id='3074'>0.79388E+02</wgt>
<wgt id='3075'>0.80805E+02</wgt>
<wgt id='3076'>0.83239E+02</wgt>
<wgt id='3077'>0.83649E+02</wgt>
<wgt id='3078'>0.78865E+02</wgt>
<wgt id='3079'>0.81830E+02</wgt>
<wgt id='3080'>0.85276E+02</wgt>
<wgt id='3081'>0.82934E+02</wgt>
<wgt id='3082'>0.80606E+02</wgt>
<wgt id='3083'>0.81244E+02</wgt>
<wgt id='3084'>0.80080E+02</wgt>
<wgt id='3085'>0.79817E+02</wgt>
<wgt id='3086'>0.83890E+02</wgt>
<wgt id='3087'>0.79086E+02</wgt>
<wgt id='3088'>0.80805E+02</wgt>
<wgt id='3089'>0.83345E+02</wgt>
<wgt id='3090'>0.79130E+02</wgt>
<wgt id='3091'>0.79787E+02</wgt>
<wgt id='3092'>0.82078E+02</wgt>
<wgt id='3093'>0.81871E+02</wgt>
<wgt id='3094'>0.81900E+02</wgt>
<wgt id='3095'>0.78745E+02</wgt>
<wgt id='3096'>0.80554E+02</wgt>
<wgt id='3097'>0.86871E+02</wgt>
<wgt id='3098'>0.80959E+02</wgt>
<wgt id='3099'>0.79474E+02</wgt>
<wgt id='3100'>0.80789E+02</wgt>
<wgt id='3200'>0.80848E+02</wgt>
<wgt id='3201'>0.79633E+02</wgt>
<wgt id='3202'>0.79115E+02</wgt>
<wgt id='3203'>0.81482E+02</wgt>
<wgt id='3204'>0.81043E+02</wgt>
<wgt id='3205'>0.80546E+02</wgt>
<wgt id='3206'>0.82095E+02</wgt>
<wgt id='3207'>0.81155E+02</wgt>
<wgt id='3208'>0.80991E+02</wgt>
<wgt id='3209'>0.80874E+02</wgt>
<wgt id='3210'>0.80986E+02</wgt>
<wgt id='3211'>0.80503E+02</wgt>
<wgt id='3212'>0.81829E+02</wgt>
<wgt id='3213'>0.81570E+02</wgt>
<wgt id='3214'>0.80153E+02</wgt>
<wgt id='3215'>0.80559E+02</wgt>
<wgt id='3216'>0.81148E+02</wgt>
<wgt id='3217'>0.81245E+02</wgt>
<wgt id='3218'>0.82638E+02</wgt>
<wgt id='3219'>0.80857E+02</wgt>
<wgt id='3220'>0.79774E+02</wgt>
<wgt id='3221'>0.80255E+02</wgt>
<wgt id='3222'>0.80564E+02</wgt>
<wgt id='3223'>0.82068E+02</wgt>
<wgt id='3224'>0.80384E+02</wgt>
<wgt id='3225'>0.81609E+02</wgt>
<wgt id='3226'>0.79410E+02</wgt>
<wgt id='3227'>0.79802E+02</wgt>
<wgt id='3228'>0.80888E+02</wgt>
<wgt id='3229'>0.82293E+02</wgt>
<wgt id='3230'>0.80774E+02</wgt>
<wgt id='3231'>0.80723E+02</wgt>
<wgt id='3232'>0.80874E+02</wgt>
<wgt id='3233'>0.79976E+02</wgt>
<wgt id='3234'>0.78764E+02</wgt>
<wgt id='3235'>0.81386E+02</wgt>
<wgt id='3236'>0.82227E+02</wgt>
<wgt id='3237'>0.81420E+02</wgt>
<wgt id='3238'>0.80533E+02</wgt>
<wgt id='3239'>0.80282E+02</wgt>
<wgt id='3240'>0.78978E+02</wgt>
<wgt id='3241'>0.81445E+02</wgt>
<wgt id='3242'>0.81560E+02</wgt>
<wgt id='3243'>0.83070E+02</wgt>
<wgt id='3244'>0.81866E+02</wgt>
<wgt id='3245'>0.81692E+02</wgt>
<wgt id='3246'>0.78934E+02</wgt>
<wgt id='3247'>0.78512E+02</wgt>
<wgt id='3248'>0.80473E+02</wgt>
<wgt id='3249'>0.79851E+02</wgt>
<wgt id='3250'>0.80354E+02</wgt>
<wgt id='3251'>0.80064E+02</wgt>
<wgt id='3252'>0.82227E+02</wgt>
<wgt id='3253'>0.82269E+02</wgt>
<wgt id='3254'>0.81327E+02</wgt>
<wgt id='3255'>0.79052E+02</wgt>
<wgt id='3256'>0.80772E+02</wgt>
<wgt id='3257'>0.80806E+02</wgt>
<wgt id='3258'>0.79275E+02</wgt>
<wgt id='3259'>0.78490E+02</wgt>
<wgt id='3260'>0.80713E+02</wgt>
<wgt id='3261'>0.78682E+02</wgt>
<wgt id='3262'>0.83119E+02</wgt>
<wgt id='3263'>0.80763E+02</wgt>
<wgt id='3264'>0.81804E+02</wgt>
<wgt id='3265'>0.82316E+02</wgt>
<wgt id='3266'>0.81420E+02</wgt>
<wgt id='3267'>0.81084E+02</wgt>
<wgt id='3268'>0.78905E+02</wgt>
<wgt id='3269'>0.80171E+02</wgt>
<wgt id='3270'>0.83528E+02</wgt>
<wgt id='3271'>0.80502E+02</wgt>
<wgt id='3272'>0.80519E+02</wgt>
<wgt id='3273'>0.81020E+02</wgt>
<wgt id='3274'>0.80122E+02</wgt>
<wgt id='3275'>0.82203E+02</wgt>
<wgt id='3276'>0.79933E+02</wgt>
<wgt id='3277'>0.81969E+02</wgt>
<wgt id='3278'>0.82228E+02</wgt>
<wgt id='3279'>0.80707E+02</wgt>
<wgt id='3280'>0.80468E+02</wgt>
<wgt id='3281'>0.81642E+02</wgt>
<wgt id='3282'>0.80648E+02</wgt>
<wgt id='3283'>0.81011E+02</wgt>
<wgt id='3284'>0.79163E+02</wgt>
<wgt id='3285'>0.81601E+02</wgt>
<wgt id='3286'>0.79611E+02</wgt>
<wgt id='3287'>0.84216E+02</wgt>
<wgt id='3288'>0.79230E+02</wgt>
<wgt id='3289'>0.81554E+02</wgt>
<wgt id='3290'>0.78235E+02</wgt>
<wgt id='3291'>0.81393E+02</wgt>
<wgt id='3292'>0.82003E+02</wgt>
<wgt id='3293'>0.80688E+02</wgt>
<wgt id='3294'>0.82442E+02</wgt>
<wgt id='3295'>0.81129E+02</wgt>
<wgt id='3296'>0.80813E+02</wgt>
<wgt id='3297'>0.81823E+02</wgt>
<wgt id='3298'>0.78808E+02</wgt>
<wgt id='3299'>0.81836E+02</wgt>
<wgt id='3300'>0.81469E+02</wgt>
<wgt id='3301'>0.79748E+02</wgt>
<wgt id='3302'>0.81189E+02</wgt>
<wgt id='3400'>0.78978E+02</wgt>
<wgt id='3401'>0.79751E+02</wgt>
<wgt id='3402'>0.76737E+02</wgt>
<wgt id='3403'>0.79888E+02</wgt>
<wgt id='3404'>0.80257E+02</wgt>
<wgt id='3405'>0.79122E+02</wgt>
<wgt id='3406'>0.81193E+02</wgt>
<wgt id='3407'>0.79593E+02</wgt>
<wgt id='3408'>0.78749E+02</wgt>
<wgt id='3409'>0.77992E+02</wgt>
<wgt id='3410'>0.79286E+02</wgt>
<wgt id='3411'>0.80926E+02</wgt>
<wgt id='3412'>0.79598E+02</wgt>
<wgt id='3413'>0.78677E+02</wgt>
<wgt id='3414'>0.78459E+02</wgt>
<wgt id='3415'>0.79155E+02</wgt>
<wgt id='3416'>0.78471E+02</wgt>
<wgt id='3417'>0.80460E+02</wgt>
<wgt id='3418'>0.78170E+02</wgt>
<wgt id='3419'>0.78851E+02</wgt>
<wgt id='3420'>0.77881E+02</wgt>
<wgt id='3421'>0.77561E+02</wgt>
<wgt id='3422'>0.78019E+02</wgt>
<wgt id='3423'>0.80768E+02</wgt>
<wgt id='3424'>0.79724E+02</wgt>
<wgt id='3425'>0.77444E+02</wgt>
<wgt id='3426'>0.78069E+02</wgt>
<wgt id='3427'>0.77487E+02</wgt>
<wgt id='3428'>0.79077E+02</wgt>
<wgt id='3429'>0.77808E+02</wgt>
<wgt id='3430'>0.78543E+02</wgt>
<wgt id='3431'>0.79786E+02</wgt>
<wgt id='3432'>0.81174E+02</wgt>
<wgt id='3433'>0.79722E+02</wgt>
<wgt id='3434'>0.81007E+02</wgt>
<wgt id='3435'>0.80001E+02</wgt>
<wgt id='3436'>0.78710E+02</wgt>
<wgt id='3437'>0.81457E+02</wgt>
<wgt id='3438'>0.78480E+02</wgt>
<wgt id='3439'>0.76080E+02</wgt>
<wgt id='3440'>0.79000E+02</wgt>
<wgt id='3441'>0.79386E+02</wgt>
<wgt id='3442'>0.79233E+02</wgt>
<wgt id='3443'>0.80411E+02</wgt>
<wgt id='3444'>0.77716E+02</wgt>
<wgt id='3445'>0.78234E+02</wgt>
<wgt id='3446'>0.78513E+02</wgt>
<wgt id='3447'>0.77985E+02</wgt>
<wgt id='3448'>0.80870E+02</wgt>
<wgt id='3449'>0.78751E+02</wgt>
<wgt id='3450'>0.77795E+02</wgt>
<wgt id='3451'>0.79692E+02</wgt>
<wgt id='3452'>0.78273E+02</wgt>
<wgt id='3453'>0.77329E+02</wgt>
<wgt id='3454'>0.79380E+02</wgt>
<wgt id='3455'>0.79150E+02</wgt>
<wgt id='3456'>0.79259E+02</wgt>
<wgt id='3457'>0.77893E+02</wgt>
<wgt id='3458'>0.77337E+02</wgt>
<wgt id='3459'>0.79473E+02</wgt>
<wgt id='3460'>0.78767E+02</wgt>
<wgt id='3461'>0.77990E+02</wgt>
<wgt id='3462'>0.79524E+02</wgt>
<wgt id='3463'>0.77852E+02</wgt>
<wgt id='3464'>0.79024E+02</wgt>
<wgt id='3465'>0.79298E+02</wgt>
<wgt id='3466'>0.79812E+02</wgt>
<wgt id='3467'>0.78884E+02</wgt>
<wgt id='3468'>0.77932E+02</wgt>
<wgt id='3469'>0.76826E+02</wgt>
<wgt id='3470'>0.78404E+02</wgt>
<wgt id='3471'>0.78396E+02</wgt>
<wgt id='3472'>0.76799E+02</wgt>
<wgt id='3473'>0.81358E+02</wgt>
<wgt id='3474'>0.77861E+02</wgt>
<wgt id='3475'>0.79549E+02</wgt>
<wgt id='3476'>0.78925E+02</wgt>
<wgt id='3477'>0.77584E+02</wgt>
<wgt id='3478'>0.79835E+02</wgt>
<wgt id='3479'>0.78336E+02</wgt>
<wgt id='3480'>0.80353E+02</wgt>
<wgt id='3481'>0.80916E+02</wgt>
<wgt id='3482'>0.79263E+02</wgt>
<wgt id='3483'>0.79787E+02</wgt>
<wgt id='3484'>0.77601E+02</wgt>
<wgt id='3485'>0.78085E+02</wgt>
<wgt id='3486'>0.76566E+02</wgt>
<wgt id='3487'>0.76994E+02</wgt>
<wgt id='3488'>0.78818E+02</wgt>
<wgt id='3489'>0.77846E+02</wgt>
<wgt id='3490'>0.79649E+02</wgt>
<wgt id='3491'>0.82299E+02</wgt>
<wgt id='3492'>0.77996E+02</wgt>
<wgt id='3493'>0.82053E+02</wgt>
<wgt id='3494'>0.77900E+02</wgt>
<wgt id='3495'>0.80477E+02</wgt>
<wgt id='3496'>0.77859E+02</wgt>
<wgt id='3497'>0.78856E+02</wgt>
<wgt id='3498'>0.81291E+02</wgt>
<wgt id='3499'>0.78697E+02</wgt>
<wgt id='3500'>0.81811E+02</wgt>
</rwgt>
</event>
<event>
     13 322200  8.11039E+01  1.12537E+02 -1.00000E+00  1.20036E-01
       1    -1     0     0   502     0  0.000000000E+00  0.000000000E+00  8.861981587E+02  8.861981587E+02  0.000000000E+00  0.00000E+00  9.000E+00
      21    -1     0     0   512   513  0.000000000E+00  0.000000000E+00 -1.281125934E+02  1.281125934E+02  0.000000000E+00  0.00000E+00  9.000E+00
       6     2     1     2   502     0  2.141850566E+02 -1.427820171E+02  2.773869105E+02  4.157634492E+02  1.722028011E+02  0.00000E+00  9.000E+00
      -6     2     1     2     0   513 -1.019183458E+02  1.349858342E+02  3.557094321E+02  4.303600718E+02  1.734129945E+02  0.00000E+00  9.000E+00
       1     1     1     2   512     0 -1.122667108E+02  7.796182890E+00  1.249892227E+02  1.681872311E+02  2.100000000E-01  0.00000E+00  9.000E+00
      24     2     3     3     0     0  2.346249054E+02 -1.091042769E+02  2.456059299E+02  3.648948741E+02  7.663815551E+01  0.00000E+00  9.000E+00
       5     1     3     3   502     0 -2.043984882E+01 -3.367774019E+01  3.178098064E+01  5.086857511E+01  5.060000000E+00  0.00000E+00 -1.000E+00
     -24     2     4     4     0     0 -1.376270425E+02  1.305525788E+02  2.861043510E+02  3.518410570E+02  7.714435213E+01  0.00000E+00  9.000E+00
      -5     1     4     4     0   513  3.570869665E+01  4.433255367E+00  6.960508103E+01  7.851901473E+01  5.060000000E+00  0.00000E+00  1.000E+00
     -13     1     6     6     0     0  5.141615631E+01 -3.829254942E+01  2.321248560E+01  6.818189738E+01  1.057000000E-01  0.00000E+00  1.000E+00
      14     1     6     6     0     0  1.832087491E+02 -7.081172748E+01  2.223934443E+02  2.967129767E+02  0.000000000E+00  0.00000E+00 -1.000E+00
      15     1     8     8     0     0 -2.662431131E+01  1.183411563E+01  1.027773789E+02  1.068421621E+02  1.777000000E+00  0.00000E+00 -1.000E+00
     -16     1     8     8     0     0 -1.110027312E+02  1.187184632E+02  1.833269721E+02  2.449988950E+02  0.000000000E+00  0.00000E+00  1.000E+00
#rwgt            1           1   475.17511031310170               10       12480           0
<rwgt>
<wgt id='1001'>0.81104E+02</wgt>
<wgt id='1002'>0.95120E+02</wgt>
<wgt id='1003'>0.65219E+02</wgt>
<wgt id='1004'>0.71567E+02</wgt>
<wgt id='1005'>0.81874E+02</wgt>
<wgt id='1006'>0.59852E+02</wgt>
<wgt id='1007'>0.92410E+02</wgt>
<wgt id='1008'>0.11189E+03</wgt>
<wgt id='1009'>0.70389E+02</wgt>
<wgt id='2000'>0.81104E+02</wgt>
<wgt id='2001'>0.80915E+02</wgt>
<wgt id='2002'>0.80909E+02</wgt>
<wgt id='2003'>0.81279E+02</wgt>
<wgt id='2004'>0.81278E+02</wgt>
<wgt id='2005'>0.81012E+02</wgt>
<wgt id='2006'>0.81289E+02</wgt>
<wgt id='2007'>0.81200E+02</wgt>
<wgt id='2008'>0.81211E+02</wgt>
<wgt id='2009'>0.81122E+02</wgt>
<wgt id='2010'>0.81033E+02</wgt>
<wgt id='2011'>0.81068E+02</wgt>
<wgt id='2012'>0.81233E+02</wgt>
<wgt id='2013'>0.81191E+02</wgt>
<wgt id='2014'>0.81193E+02</wgt>
<wgt id='2015'>0.81117E+02</wgt>
<wgt id='2016'>0.81268E+02</wgt>
<wgt id='2017'>0.81250E+02</wgt>
<wgt id='2018'>0.81263E+02</wgt>
<wgt id='2019'>0.80489E+02</wgt>
<wgt id='2020'>0.81239E+02</wgt>
<wgt id='2021'>0.81079E+02</wgt>
<wgt id='2022'>0.81144E+02</wgt>
<wgt id='2023'>0.81530E+02</wgt>
<wgt id='2024'>0.80768E+02</wgt>
<wgt id='2025'>0.81117E+02</wgt>
<wgt id='2026'>0.80900E+02</wgt>
<wgt id='2027'>0.80997E+02</wgt>
<wgt id='2028'>0.81356E+02</wgt>
<wgt id='2029'>0.80935E+02</wgt>
<wgt id='2030'>0.81154E+02</wgt>
<wgt id='2031'>0.80699E+02</wgt>
<wgt id='2032'>0.81031E+02</wgt>
<wgt id='2033'>0.80999E+02</wgt>
<wgt id='2034'>0.80862E+02</wgt>
<wgt id='2035'>0.81174E+02</wgt>
<wgt id='2036'>0.81304E+02</wgt>
<wgt id='2037'>0.81062E+02</wgt>
<wgt id='2038'>0.80990E+02</wgt>
<wgt id='2039'>0.81029E+02</wgt>
<wgt id='2040'>0.81056E+02</wgt>
<wgt id='2041'>0.81024E+02</wgt>
<wgt id='2042'>0.81221E+02</wgt>
<wgt id='2043'>0.81029E+02</wgt>
<wgt id='2044'>0.81189E+02</wgt>
<wgt id='2045'>0.81099E+02</wgt>
<wgt id='2046'>0.81098E+02</wgt>
<wgt id='2047'>0.81092E+02</wgt>
<wgt id='2048'>0.81110E+02</wgt>
<wgt id='2049'>0.81041E+02</wgt>
<wgt id='2050'>0.81056E+02</wgt>
<wgt id='2051'>0.81090E+02</wgt>
<wgt id='2052'>0.81194E+02</wgt>
<wgt id='2053'>0.81101E+02</wgt>
<wgt id='2054'>0.81101E+02</wgt>
<wgt id='2055'>0.81092E+02</wgt>
<wgt id='2056'>0.81029E+02</wgt>
<wgt id='2057'>0.81137E+02</wgt>
<wgt id='2058'>0.81147E+02</wgt>
<wgt id='2059'>0.81101E+02</wgt>
<wgt id='2060'>0.81094E+02</wgt>
<wgt id='2061'>0.81080E+02</wgt>
<wgt id='2062'>0.81174E+02</wgt>
<wgt id='2063'>0.81121E+02</wgt>
<wgt id='2064'>0.81106E+02</wgt>
<wgt id='2065'>0.81176E+02</wgt>
<wgt id='2066'>0.81084E+02</wgt>
<wgt id='2067'>0.81116E+02</wgt>
<wgt id='2068'>0.81131E+02</wgt>
<wgt id='2069'>0.81104E+02</wgt>
<wgt id='2070'>0.81121E+02</wgt>
<wgt id='2071'>0.81095E+02</wgt>
<wgt id='2072'>0.81094E+02</wgt>
<wgt id='2073'>0.81125E+02</wgt>
<wgt id='2074'>0.81084E+02</wgt>
<wgt id='2075'>0.81088E+02</wgt>
<wgt id='2076'>0.81073E+02</wgt>
<wgt id='2077'>0.81163E+02</wgt>
<wgt id='2078'>0.81113E+02</wgt>
<wgt id='2079'>0.81082E+02</wgt>
<wgt id='2080'>0.81123E+02</wgt>
<wgt id='2081'>0.81095E+02</wgt>
<wgt id='2082'>0.81117E+02</wgt>
<wgt id='2083'>0.81143E+02</wgt>
<wgt id='2084'>0.81105E+02</wgt>
<wgt id='2085'>0.81109E+02</wgt>
<wgt id='2086'>0.81090E+02</wgt>
<wgt id='2087'>0.81113E+02</wgt>
<wgt id='2088'>0.81098E+02</wgt>
<wgt id='2089'>0.81090E+02</wgt>
<wgt id='2090'>0.81120E+02</wgt>
<wgt id='2091'>0.81105E+02</wgt>
<wgt id='2092'>0.81137E+02</wgt>
<wgt id='2093'>0.81084E+02</wgt>
<wgt id='2094'>0.81105E+02</wgt>
<wgt id='2095'>0.81123E+02</wgt>
<wgt id='2096'>0.81092E+02</wgt>
<wgt id='2097'>0.81116E+02</wgt>
<wgt id='2098'>0.81101E+02</wgt>
<wgt id='2099'>0.81115E+02</wgt>
<wgt id='2100'>0.81104E+02</wgt>
<wgt id='2101'>0.79388E+02</wgt>
<wgt id='2102'>0.83341E+02</wgt>
<wgt id='2200'>0.81226E+02</wgt>
<wgt id='2201'>0.71396E+02</wgt>
<wgt id='2202'>0.73474E+02</wgt>
<wgt id='2203'>0.75242E+02</wgt>
<wgt id='2204'>0.76968E+02</wgt>
<wgt id='2205'>0.80320E+02</wgt>
<wgt id='2206'>0.82446E+02</wgt>
<wgt id='2207'>0.85325E+02</wgt>
<wgt id='2208'>0.87295E+02</wgt>
<wgt id='2300'>0.85232E+02</wgt>
<wgt id='2301'>0.85396E+02</wgt>
<wgt id='2302'>0.85081E+02</wgt>
<wgt id='2303'>0.85208E+02</wgt>
<wgt id='2304'>0.85491E+02</wgt>
<wgt id='2305'>0.85266E+02</wgt>
<wgt id='2306'>0.85203E+02</wgt>
<wgt id='2307'>0.85273E+02</wgt>
<wgt id='2308'>0.85181E+02</wgt>
<wgt id='2309'>0.85334E+02</wgt>
<wgt id='2310'>0.85049E+02</wgt>
<wgt id='2311'>0.85124E+02</wgt>
<wgt id='2312'>0.85345E+02</wgt>
<wgt id='2313'>0.85195E+02</wgt>
<wgt id='2314'>0.85222E+02</wgt>
<wgt id='2315'>0.85172E+02</wgt>
<wgt id='2316'>0.85276E+02</wgt>
<wgt id='2317'>0.85219E+02</wgt>
<wgt id='2318'>0.85212E+02</wgt>
<wgt id='2319'>0.85360E+02</wgt>
<wgt id='2320'>0.85484E+02</wgt>
<wgt id='2321'>0.85458E+02</wgt>
<wgt id='2322'>0.85227E+02</wgt>
<wgt id='2323'>0.85305E+02</wgt>
<wgt id='2324'>0.85401E+02</wgt>
<wgt id='2325'>0.85338E+02</wgt>
<wgt id='2326'>0.84949E+02</wgt>
<wgt id='2327'>0.85325E+02</wgt>
<wgt id='2328'>0.85374E+02</wgt>
<wgt id='2329'>0.84992E+02</wgt>
<wgt id='2330'>0.85826E+02</wgt>
<wgt id='2331'>0.85527E+02</wgt>
<wgt id='2332'>0.84992E+02</wgt>
<wgt id='2333'>0.85117E+02</wgt>
<wgt id='2334'>0.85123E+02</wgt>
<wgt id='2335'>0.85406E+02</wgt>
<wgt id='2336'>0.85394E+02</wgt>
<wgt id='2337'>0.85303E+02</wgt>
<wgt id='2338'>0.85271E+02</wgt>
<wgt id='2339'>0.85583E+02</wgt>
<wgt id='2340'>0.85203E+02</wgt>
<wgt id='2341'>0.85147E+02</wgt>
<wgt id='2342'>0.84972E+02</wgt>
<wgt id='2343'>0.84948E+02</wgt>
<wgt id='2344'>0.85461E+02</wgt>
<wgt id='2345'>0.85420E+02</wgt>
<wgt id='2346'>0.85346E+02</wgt>
<wgt id='2347'>0.85162E+02</wgt>
<wgt id='2348'>0.85384E+02</wgt>
<wgt id='2349'>0.85150E+02</wgt>
<wgt id='2350'>0.85148E+02</wgt>
<wgt id='2351'>0.85519E+02</wgt>
<wgt id='2352'>0.85214E+02</wgt>
<wgt id='2353'>0.85128E+02</wgt>
<wgt id='2354'>0.85193E+02</wgt>
<wgt id='2355'>0.85356E+02</wgt>
<wgt id='2356'>0.85251E+02</wgt>
<wgt id='2357'>0.85166E+02</wgt>
<wgt id='2358'>0.85236E+02</wgt>
<wgt id='2359'>0.85198E+02</wgt>
<wgt id='2360'>0.85223E+02</wgt>
<wgt id='2361'>0.85196E+02</wgt>
<wgt id='2362'>0.85208E+02</wgt>
<wgt id='2363'>0.85300E+02</wgt>
<wgt id='2364'>0.85238E+02</wgt>
<wgt id='2365'>0.85262E+02</wgt>
<wgt id='2366'>0.85245E+02</wgt>
<wgt id='2367'>0.85249E+02</wgt>
<wgt id='2368'>0.85212E+02</wgt>
<wgt id='2369'>0.85192E+02</wgt>
<wgt id='2370'>0.85217E+02</wgt>
<wgt id='2371'>0.85269E+02</wgt>
<wgt id='2372'>0.85232E+02</wgt>
<wgt id='2373'>0.85192E+02</wgt>
<wgt id='2374'>0.85354E+02</wgt>
<wgt id='2375'>0.85223E+02</wgt>
<wgt id='2376'>0.85255E+02</wgt>
<wgt id='2377'>0.85248E+02</wgt>
<wgt id='2378'>0.85263E+02</wgt>
<wgt id='2379'>0.85191E+02</wgt>
<wgt id='2380'>0.85180E+02</wgt>
<wgt id='2381'>0.85211E+02</wgt>
<wgt id='2382'>0.85178E+02</wgt>
<wgt id='2383'>0.85288E+02</wgt>
<wgt id='2384'>0.85257E+02</wgt>
<wgt id='2385'>0.85230E+02</wgt>
<wgt id='2386'>0.85235E+02</wgt>
<wgt id='2387'>0.85223E+02</wgt>
<wgt id='2388'>0.85230E+02</wgt>
<wgt id='2389'>0.85239E+02</wgt>
<wgt id='2390'>0.85194E+02</wgt>
<wgt id='2391'>0.85208E+02</wgt>
<wgt id='2392'>0.85245E+02</wgt>
<wgt id='2393'>0.85256E+02</wgt>
<wgt id='2394'>0.85244E+02</wgt>
<wgt id='2395'>0.85238E+02</wgt>
<wgt id='2396'>0.85214E+02</wgt>
<wgt id='2397'>0.85208E+02</wgt>
<wgt id='2398'>0.85245E+02</wgt>
<wgt id='2399'>0.85251E+02</wgt>
<wgt id='2400'>0.85238E+02</wgt>
<wgt id='2401'>0.83191E+02</wgt>
<wgt id='2402'>0.87366E+02</wgt>
<wgt id='2500'>0.82067E+02</wgt>
<wgt id='2501'>0.87183E+02</wgt>
<wgt id='2600'>0.78936E+02</wgt>
<wgt id='2601'>0.78804E+02</wgt>
<wgt id='2602'>0.78961E+02</wgt>
<wgt id='2603'>0.78918E+02</wgt>
<wgt id='2604'>0.78996E+02</wgt>
<wgt id='2605'>0.78831E+02</wgt>
<wgt id='2606'>0.78899E+02</wgt>
<wgt id='2607'>0.79001E+02</wgt>
<wgt id='2608'>0.78984E+02</wgt>
<wgt id='2609'>0.78860E+02</wgt>
<wgt id='2610'>0.78876E+02</wgt>
<wgt id='2611'>0.78893E+02</wgt>
<wgt id='2612'>0.79058E+02</wgt>
<wgt id='2613'>0.78929E+02</wgt>
<wgt id='2614'>0.78883E+02</wgt>
<wgt id='2615'>0.78747E+02</wgt>
<wgt id='2616'>0.78956E+02</wgt>
<wgt id='2617'>0.78738E+02</wgt>
<wgt id='2618'>0.78821E+02</wgt>
<wgt id='2619'>0.79010E+02</wgt>
<wgt id='2620'>0.78870E+02</wgt>
<wgt id='2621'>0.79010E+02</wgt>
<wgt id='2622'>0.79268E+02</wgt>
<wgt id='2623'>0.78929E+02</wgt>
<wgt id='2624'>0.78920E+02</wgt>
<wgt id='2625'>0.78920E+02</wgt>
<wgt id='2626'>0.78925E+02</wgt>
<wgt id='2627'>0.78973E+02</wgt>
<wgt id='2628'>0.78942E+02</wgt>
<wgt id='2629'>0.78964E+02</wgt>
<wgt id='2630'>0.79021E+02</wgt>
<wgt id='2631'>0.78783E+02</wgt>
<wgt id='2632'>0.78939E+02</wgt>
<wgt id='2633'>0.78874E+02</wgt>
<wgt id='2634'>0.78816E+02</wgt>
<wgt id='2635'>0.78915E+02</wgt>
<wgt id='2636'>0.78929E+02</wgt>
<wgt id='2637'>0.78964E+02</wgt>
<wgt id='2638'>0.78969E+02</wgt>
<wgt id='2639'>0.78946E+02</wgt>
<wgt id='2640'>0.78920E+02</wgt>
<wgt id='2641'>0.78974E+02</wgt>
<wgt id='2642'>0.78956E+02</wgt>
<wgt id='2643'>0.78918E+02</wgt>
<wgt id='2644'>0.78931E+02</wgt>
<wgt id='2645'>0.78938E+02</wgt>
<wgt id='2646'>0.79004E+02</wgt>
<wgt id='2647'>0.78921E+02</wgt>
<wgt id='2648'>0.78917E+02</wgt>
<wgt id='2649'>0.78927E+02</wgt>
<wgt id='2650'>0.78936E+02</wgt>
<wgt id='2651'>0.77612E+02</wgt>
<wgt id='2652'>0.80068E+02</wgt>
<wgt id='2700'>0.76453E+02</wgt>
<wgt id='2701'>0.77612E+02</wgt>
<wgt id='2702'>0.78341E+02</wgt>
<wgt id='2703'>0.79469E+02</wgt>
<wgt id='2704'>0.80068E+02</wgt>
<wgt id='2705'>0.81241E+02</wgt>
<wgt id='2800'>0.80202E+02</wgt>
<wgt id='4000'>0.81511E+02</wgt>
<wgt id='4001'>0.81822E+02</wgt>
<wgt id='4002'>0.81458E+02</wgt>
<wgt id='4003'>0.81465E+02</wgt>
<wgt id='4004'>0.81572E+02</wgt>
<wgt id='4005'>0.81380E+02</wgt>
<wgt id='4006'>0.81722E+02</wgt>
<wgt id='4007'>0.82310E+02</wgt>
<wgt id='4008'>0.80749E+02</wgt>
<wgt id='4009'>0.81580E+02</wgt>
<wgt id='4010'>0.81323E+02</wgt>
<wgt id='4011'>0.81911E+02</wgt>
<wgt id='4012'>0.81073E+02</wgt>
<wgt id='4013'>0.81906E+02</wgt>
<wgt id='4014'>0.81221E+02</wgt>
<wgt id='4015'>0.81151E+02</wgt>
<wgt id='4016'>0.82232E+02</wgt>
<wgt id='4017'>0.81471E+02</wgt>
<wgt id='4018'>0.81587E+02</wgt>
<wgt id='4019'>0.81879E+02</wgt>
<wgt id='4020'>0.80998E+02</wgt>
<wgt id='4021'>0.81663E+02</wgt>
<wgt id='4022'>0.81230E+02</wgt>
<wgt id='4023'>0.81690E+02</wgt>
<wgt id='4024'>0.81656E+02</wgt>
<wgt id='4025'>0.81647E+02</wgt>
<wgt id='4026'>0.81267E+02</wgt>
<wgt id='4027'>0.81780E+02</wgt>
<wgt id='4028'>0.81319E+02</wgt>
<wgt id='4029'>0.81677E+02</wgt>
<wgt id='4030'>0.80812E+02</wgt>
<wgt id='4031'>0.81203E+02</wgt>
<wgt id='4032'>0.82327E+02</wgt>
<wgt id='4033'>0.81922E+02</wgt>
<wgt id='4034'>0.80883E+02</wgt>
<wgt id='4035'>0.82468E+02</wgt>
<wgt id='4036'>0.80774E+02</wgt>
<wgt id='4037'>0.83424E+02</wgt>
<wgt id='4038'>0.80085E+02</wgt>
<wgt id='4039'>0.83172E+02</wgt>
<wgt id='4040'>0.79879E+02</wgt>
<wgt id='4041'>0.81730E+02</wgt>
<wgt id='4042'>0.81185E+02</wgt>
<wgt id='4043'>0.80985E+02</wgt>
<wgt id='4044'>0.81124E+02</wgt>
<wgt id='4045'>0.82484E+02</wgt>
<wgt id='4046'>0.81044E+02</wgt>
<wgt id='4047'>0.81129E+02</wgt>
<wgt id='4048'>0.81761E+02</wgt>
<wgt id='4049'>0.81550E+02</wgt>
<wgt id='4050'>0.81467E+02</wgt>
<wgt id='4051'>0.82341E+02</wgt>
<wgt id='4052'>0.80863E+02</wgt>
<wgt id='4053'>0.81720E+02</wgt>
<wgt id='4054'>0.80740E+02</wgt>
<wgt id='4055'>0.81930E+02</wgt>
<wgt id='4056'>0.81082E+02</wgt>
<wgt id='4057'>0.80727E+02</wgt>
<wgt id='4058'>0.82034E+02</wgt>
<wgt id='4100'>0.82068E+02</wgt>
<wgt id='4101'>0.81783E+02</wgt>
<wgt id='4102'>0.81241E+02</wgt>
<wgt id='4103'>0.80967E+02</wgt>
<wgt id='4200'>0.78893E+02</wgt>
<wgt id='4201'>0.78913E+02</wgt>
<wgt id='4202'>0.79085E+02</wgt>
<wgt id='4203'>0.78297E+02</wgt>
<wgt id='4204'>0.79291E+02</wgt>
<wgt id='4205'>0.78819E+02</wgt>
<wgt id='4206'>0.79153E+02</wgt>
<wgt id='4207'>0.79103E+02</wgt>
<wgt id='4208'>0.78795E+02</wgt>
<wgt id='4209'>0.78911E+02</wgt>
<wgt id='4210'>0.78970E+02</wgt>
<wgt id='4211'>0.79820E+02</wgt>
<wgt id='4212'>0.78161E+02</wgt>
<wgt id='4213'>0.79105E+02</wgt>
<wgt id='4214'>0.78543E+02</wgt>
<wgt id='4215'>0.78875E+02</wgt>
<wgt id='4216'>0.78832E+02</wgt>
<wgt id='4217'>0.78611E+02</wgt>
<wgt id='4218'>0.79064E+02</wgt>
<wgt id='4219'>0.78024E+02</wgt>
<wgt id='4220'>0.79724E+02</wgt>
<wgt id='4221'>0.78288E+02</wgt>
<wgt id='4222'>0.79667E+02</wgt>
<wgt id='4223'>0.78784E+02</wgt>
<wgt id='4224'>0.78388E+02</wgt>
<wgt id='4225'>0.77689E+02</wgt>
<wgt id='4226'>0.80177E+02</wgt>
<wgt id='4227'>0.79569E+02</wgt>
<wgt id='4228'>0.78323E+02</wgt>
<wgt id='4229'>0.77770E+02</wgt>
<wgt id='4230'>0.79744E+02</wgt>
<wgt id='4231'>0.79010E+02</wgt>
<wgt id='4232'>0.78645E+02</wgt>
<wgt id='4233'>0.79070E+02</wgt>
<wgt id='4234'>0.78334E+02</wgt>
<wgt id='4235'>0.79497E+02</wgt>
<wgt id='4236'>0.78326E+02</wgt>
<wgt id='4237'>0.79530E+02</wgt>
<wgt id='4238'>0.77843E+02</wgt>
<wgt id='4239'>0.78906E+02</wgt>
<wgt id='4240'>0.78129E+02</wgt>
<wgt id='4241'>0.78740E+02</wgt>
<wgt id='4242'>0.79031E+02</wgt>
<wgt id='4243'>0.78947E+02</wgt>
<wgt id='4244'>0.79063E+02</wgt>
<wgt id='4245'>0.78396E+02</wgt>
<wgt id='4246'>0.79202E+02</wgt>
<wgt id='4247'>0.78483E+02</wgt>
<wgt id='4248'>0.79057E+02</wgt>
<wgt id='4249'>0.80101E+02</wgt>
<wgt id='4250'>0.77481E+02</wgt>
<wgt id='4251'>0.78792E+02</wgt>
<wgt id='4252'>0.78872E+02</wgt>
<wgt id='4253'>0.78758E+02</wgt>
<wgt id='4254'>0.78814E+02</wgt>
<wgt id='4255'>0.79740E+02</wgt>
<wgt id='4256'>0.78370E+02</wgt>
<wgt id='4257'>0.77426E+02</wgt>
<wgt id='4258'>0.79316E+02</wgt>
<wgt id='4300'>0.80641E+02</wgt>
<wgt id='4301'>0.80460E+02</wgt>
<wgt id='5000'>0.81679E+02</wgt>
<wgt id='5001'>0.81723E+02</wgt>
<wgt id='5002'>0.81624E+02</wgt>
<wgt id='5003'>0.81699E+02</wgt>
<wgt id='5004'>0.81661E+02</wgt>
<wgt id='5005'>0.81686E+02</wgt>
<wgt id='5006'>0.81668E+02</wgt>
<wgt id='5007'>0.81761E+02</wgt>
<wgt id='5008'>0.81613E+02</wgt>
<wgt id='5009'>0.81791E+02</wgt>
<wgt id='5010'>0.81565E+02</wgt>
<wgt id='5011'>0.81910E+02</wgt>
<wgt id='5012'>0.81457E+02</wgt>
<wgt id='5013'>0.81802E+02</wgt>
<wgt id='5014'>0.81592E+02</wgt>
<wgt id='5015'>0.81253E+02</wgt>
<wgt id='5016'>0.81253E+02</wgt>
<wgt id='5017'>0.82107E+02</wgt>
<wgt id='5018'>0.81391E+02</wgt>
<wgt id='5019'>0.81992E+02</wgt>
<wgt id='5020'>0.81250E+02</wgt>
<wgt id='5021'>0.81780E+02</wgt>
<wgt id='5022'>0.81522E+02</wgt>
<wgt id='5023'>0.81602E+02</wgt>
<wgt id='5024'>0.81864E+02</wgt>
<wgt id='5025'>0.81406E+02</wgt>
<wgt id='5026'>0.81985E+02</wgt>
<wgt id='5027'>0.81730E+02</wgt>
<wgt id='5028'>0.81544E+02</wgt>
<wgt id='5029'>0.82563E+02</wgt>
<wgt id='5030'>0.81181E+02</wgt>
<wgt id='5031'>0.81203E+02</wgt>
<wgt id='5032'>0.83130E+02</wgt>
<wgt id='5033'>0.81645E+02</wgt>
<wgt id='5034'>0.81716E+02</wgt>
<wgt id='5035'>0.81689E+02</wgt>
<wgt id='5036'>0.81669E+02</wgt>
<wgt id='5037'>0.81480E+02</wgt>
<wgt id='5038'>0.81792E+02</wgt>
<wgt id='5039'>0.81888E+02</wgt>
<wgt id='5040'>0.81164E+02</wgt>
<wgt id='5041'>0.81686E+02</wgt>
<wgt id='5042'>0.81675E+02</wgt>
<wgt id='5043'>0.81842E+02</wgt>
<wgt id='5044'>0.81577E+02</wgt>
<wgt id='5045'>0.81665E+02</wgt>
<wgt id='5046'>0.81729E+02</wgt>
<wgt id='5047'>0.81745E+02</wgt>
<wgt id='5048'>0.81393E+02</wgt>
<wgt id='5049'>0.81617E+02</wgt>
<wgt id='5050'>0.81831E+02</wgt>
<wgt id='5051'>0.81869E+02</wgt>
<wgt id='5052'>0.81536E+02</wgt>
<wgt id='5053'>0.81682E+02</wgt>
<wgt id='5054'>0.81871E+02</wgt>
<wgt id='5055'>0.81735E+02</wgt>
<wgt id='5056'>0.81720E+02</wgt>
<wgt id='5057'>0.81364E+02</wgt>
<wgt id='5058'>0.81901E+02</wgt>
<wgt id='5059'>0.81604E+02</wgt>
<wgt id='5060'>0.81731E+02</wgt>
<wgt id='5061'>0.81943E+02</wgt>
<wgt id='5062'>0.81815E+02</wgt>
<wgt id='5063'>0.81995E+02</wgt>
<wgt id='5064'>0.81683E+02</wgt>
<wgt id='5100'>0.81679E+02</wgt>
<wgt id='5101'>0.81681E+02</wgt>
<wgt id='6000'>0.80993E+02</wgt>
<wgt id='6001'>0.80783E+02</wgt>
<wgt id='6002'>0.80728E+02</wgt>
<wgt id='6003'>0.80791E+02</wgt>
<wgt id='6004'>0.81120E+02</wgt>
<wgt id='6005'>0.80604E+02</wgt>
<wgt id='6006'>0.81089E+02</wgt>
<wgt id='6007'>0.80643E+02</wgt>
<wgt id='6008'>0.80922E+02</wgt>
<wgt id='6009'>0.80912E+02</wgt>
<wgt id='6010'>0.80193E+02</wgt>
<wgt id='6011'>0.80939E+02</wgt>
<wgt id='6012'>0.81175E+02</wgt>
<wgt id='6013'>0.80643E+02</wgt>
<wgt id='6014'>0.80747E+02</wgt>
<wgt id='6015'>0.80359E+02</wgt>
<wgt id='6016'>0.81260E+02</wgt>
<wgt id='6017'>0.80709E+02</wgt>
<wgt id='6018'>0.80571E+02</wgt>
<wgt id='6019'>0.81010E+02</wgt>
<wgt id='6020'>0.81167E+02</wgt>
<wgt id='6021'>0.80882E+02</wgt>
<wgt id='6022'>0.81097E+02</wgt>
<wgt id='6023'>0.80971E+02</wgt>
<wgt id='6024'>0.81072E+02</wgt>
<wgt id='6025'>0.81382E+02</wgt>
<wgt id='6026'>0.80879E+02</wgt>
<wgt id='6027'>0.80999E+02</wgt>
<wgt id='6028'>0.80712E+02</wgt>
<wgt id='6029'>0.80847E+02</wgt>
<wgt id='6030'>0.80663E+02</wgt>
<wgt id='6031'>0.80761E+02</wgt>
<wgt id='6032'>0.80966E+02</wgt>
<wgt id='6033'>0.80927E+02</wgt>
<wgt id='6034'>0.81320E+02</wgt>
<wgt id='6035'>0.81048E+02</wgt>
<wgt id='6036'>0.81618E+02</wgt>
<wgt id='6037'>0.80998E+02</wgt>
<wgt id='6038'>0.80968E+02</wgt>
<wgt id='6039'>0.81207E+02</wgt>
<wgt id='6040'>0.80982E+02</wgt>
<wgt id='6041'>0.79176E+02</wgt>
<wgt id='6042'>0.81189E+02</wgt>
<wgt id='7000'>0.80394E+02</wgt>
<wgt id='7001'>0.79269E+02</wgt>
<wgt id='7002'>0.79446E+02</wgt>
<wgt id='7003'>0.79341E+02</wgt>
<wgt id='7004'>0.79374E+02</wgt>
<wgt id='7005'>0.79452E+02</wgt>
<wgt id='7006'>0.79264E+02</wgt>
<wgt id='7007'>0.79865E+02</wgt>
<wgt id='7008'>0.78865E+02</wgt>
<wgt id='7009'>0.78989E+02</wgt>
<wgt id='7010'>0.79740E+02</wgt>
<wgt id='7011'>0.79648E+02</wgt>
<wgt id='7012'>0.79074E+02</wgt>
<wgt id='7013'>0.79258E+02</wgt>
<wgt id='7014'>0.79451E+02</wgt>
<wgt id='7015'>0.79382E+02</wgt>
<wgt id='7016'>0.79129E+02</wgt>
<wgt id='7017'>0.79337E+02</wgt>
<wgt id='7018'>0.79384E+02</wgt>
<wgt id='7019'>0.79400E+02</wgt>
<wgt id='7020'>0.79327E+02</wgt>
<wgt id='7021'>0.79866E+02</wgt>
<wgt id='7022'>0.78846E+02</wgt>
<wgt id='7023'>0.78703E+02</wgt>
<wgt id='7024'>0.80019E+02</wgt>
<wgt id='7025'>0.78119E+02</wgt>
<wgt id='7026'>0.80522E+02</wgt>
<wgt id='7027'>0.78841E+02</wgt>
<wgt id='7028'>0.79940E+02</wgt>
<wgt id='8000'>0.80323E+02</wgt>
<wgt id='8001'>0.80315E+02</wgt>
<wgt id='8002'>0.80348E+02</wgt>
<wgt id='8003'>0.80324E+02</wgt>
<wgt id='8004'>0.80321E+02</wgt>
<wgt id='8005'>0.80165E+02</wgt>
<wgt id='8006'>0.80418E+02</wgt>
<wgt id='8007'>0.80496E+02</wgt>
<wgt id='8008'>0.80510E+02</wgt>
<wgt id='8009'>0.80679E+02</wgt>
<wgt id='8010'>0.80227E+02</wgt>
<wgt id='8011'>0.80347E+02</wgt>
<wgt id='8012'>0.80011E+02</wgt>
<wgt id='8013'>0.80154E+02</wgt>
<wgt id='8014'>0.80536E+02</wgt>
<wgt id='8015'>0.80275E+02</wgt>
<wgt id='8016'>0.80421E+02</wgt>
<wgt id='8017'>0.80409E+02</wgt>
<wgt id='8018'>0.80572E+02</wgt>
<wgt id='8019'>0.80308E+02</wgt>
<wgt id='8020'>0.80401E+02</wgt>
<wgt id='8021'>0.80221E+02</wgt>
<wgt id='8022'>0.80457E+02</wgt>
<wgt id='8023'>0.80152E+02</wgt>
<wgt id='8024'>0.79942E+02</wgt>
<wgt id='8025'>0.80142E+02</wgt>
<wgt id='8026'>0.80396E+02</wgt>
<wgt id='8027'>0.80413E+02</wgt>
<wgt id='8028'>0.80375E+02</wgt>
<wgt id='8029'>0.80767E+02</wgt>
<wgt id='3000'>0.81104E+02</wgt>
<wgt id='3001'>0.79967E+02</wgt>
<wgt id='3002'>0.80256E+02</wgt>
<wgt id='3003'>0.80856E+02</wgt>
<wgt id='3004'>0.82421E+02</wgt>
<wgt id='3005'>0.82420E+02</wgt>
<wgt id='3006'>0.82137E+02</wgt>
<wgt id='3007'>0.79805E+02</wgt>
<wgt id='3008'>0.80434E+02</wgt>
<wgt id='3009'>0.80926E+02</wgt>
<wgt id='3010'>0.83189E+02</wgt>
<wgt id='3011'>0.80771E+02</wgt>
<wgt id='3012'>0.81094E+02</wgt>
<wgt id='3013'>0.78982E+02</wgt>
<wgt id='3014'>0.80938E+02</wgt>
<wgt id='3015'>0.79948E+02</wgt>
<wgt id='3016'>0.81864E+02</wgt>
<wgt id='3017'>0.82824E+02</wgt>
<wgt id='3018'>0.80554E+02</wgt>
<wgt id='3019'>0.80104E+02</wgt>
<wgt id='3020'>0.80803E+02</wgt>
<wgt id='3021'>0.78207E+02</wgt>
<wgt id='3022'>0.79506E+02</wgt>
<wgt id='3023'>0.80037E+02</wgt>
<wgt id='3024'>0.81482E+02</wgt>
<wgt id='3025'>0.80287E+02</wgt>
<wgt id='3026'>0.79875E+02</wgt>
<wgt id='3027'>0.80991E+02</wgt>
<wgt id='3028'>0.80373E+02</wgt>
<wgt id='3029'>0.82200E+02</wgt>
<wgt id='3030'>0.81538E+02</wgt>
<wgt id='3031'>0.79661E+02</wgt>
<wgt id='3032'>0.79606E+02</wgt>
<wgt id='3033'>0.80643E+02</wgt>
<wgt id='3034'>0.82993E+02</wgt>
<wgt id='3035'>0.79152E+02</wgt>
<wgt id='3036'>0.79397E+02</wgt>
<wgt id='3037'>0.78796E+02</wgt>
<wgt id='3038'>0.81433E+02</wgt>
<wgt id='3039'>0.78958E+02</wgt>
<wgt id='3040'>0.81844E+02</wgt>
<wgt id='3041'>0.82294E+02</wgt>
<wgt id='3042'>0.82160E+02</wgt>
<wgt id='3043'>0.82452E+02</wgt>
<wgt id='3044'>0.82522E+02</wgt>
<wgt id='3045'>0.82085E+02</wgt>
<wgt id='3046'>0.81730E+02</wgt>
<wgt id='3047'>0.80358E+02</wgt>
<wgt id='3048'>0.81664E+02</wgt>
<wgt id='3049'>0.79166E+02</wgt>
<wgt id='3050'>0.80238E+02</wgt>
<wgt id='3051'>0.80146E+02</wgt>
<wgt id='3052'>0.79770E+02</wgt>
<wgt id='3053'>0.81781E+02</wgt>
<wgt id='3054'>0.79237E+02</wgt>
<wgt id='3055'>0.81542E+02</wgt>
<wgt id='3056'>0.81395E+02</wgt>
<wgt id='3057'>0.79615E+02</wgt>
<wgt id='3058'>0.81767E+02</wgt>
<wgt id='3059'>0.82059E+02</wgt>
<wgt id='3060'>0.80106E+02</wgt>
<wgt id='3061'>0.80203E+02</wgt>
<wgt id='3062'>0.80908E+02</wgt>
<wgt id='3063'>0.80724E+02</wgt>
<wgt id='3064'>0.82455E+02</wgt>
<wgt id='3065'>0.79940E+02</wgt>
<wgt id='3066'>0.82941E+02</wgt>
<wgt id='3067'>0.80130E+02</wgt>
<wgt id='3068'>0.81024E+02</wgt>
<wgt id='3069'>0.81171E+02</wgt>
<wgt id='3070'>0.81297E+02</wgt>
<wgt id='3071'>0.81184E+02</wgt>
<wgt id='3072'>0.80135E+02</wgt>
<wgt id='3073'>0.81994E+02</wgt>
<wgt id='3074'>0.80893E+02</wgt>
<wgt id='3075'>0.82135E+02</wgt>
<wgt id='3076'>0.82766E+02</wgt>
<wgt id='3077'>0.82078E+02</wgt>
<wgt id='3078'>0.78884E+02</wgt>
<wgt id='3079'>0.81066E+02</wgt>
<wgt id='3080'>0.83020E+02</wgt>
<wgt id='3081'>0.81599E+02</wgt>
<wgt id='3082'>0.81864E+02</wgt>
<wgt id='3083'>0.81993E+02</wgt>
<wgt id='3084'>0.81032E+02</wgt>
<wgt id='3085'>0.79451E+02</wgt>
<wgt id='3086'>0.82115E+02</wgt>
<wgt id='3087'>0.80788E+02</wgt>
<wgt id='3088'>0.82673E+02</wgt>
<wgt id='3089'>0.85200E+02</wgt>
<wgt id='3090'>0.82575E+02</wgt>
<wgt id='3091'>0.81636E+02</wgt>
<wgt id='3092'>0.82183E+02</wgt>
<wgt id='3093'>0.81918E+02</wgt>
<wgt id='3094'>0.82097E+02</wgt>
<wgt id='3095'>0.80645E+02</wgt>
<wgt id='3096'>0.80566E+02</wgt>
<wgt id='3097'>0.83495E+02</wgt>
<wgt id='3098'>0.82318E+02</wgt>
<wgt id='3099'>0.80424E+02</wgt>
<wgt id='3100'>0.80980E+02</wgt>
<wgt id='3200'>0.78990E+02</wgt>
<wgt id='3201'>0.79352E+02</wgt>
<wgt id='3202'>0.77282E+02</wgt>
<wgt id='3203'>0.79349E+02</wgt>
<wgt id='3204'>0.78105E+02</wgt>
<wgt id='3205'>0.79303E+02</wgt>
<wgt id='3206'>0.80166E+02</wgt>
<wgt id='3207'>0.80108E+02</wgt>
<wgt id='3208'>0.79404E+02</wgt>
<wgt id='3209'>0.78776E+02</wgt>
<wgt id='3210'>0.79096E+02</wgt>
<wgt id='3211'>0.79634E+02</wgt>
<wgt id='3212'>0.78907E+02</wgt>
<wgt id='3213'>0.79099E+02</wgt>
<wgt id='3214'>0.78667E+02</wgt>
<wgt id='3215'>0.79176E+02</wgt>
<wgt id='3216'>0.79786E+02</wgt>
<wgt id='3217'>0.79325E+02</wgt>
<wgt id='3218'>0.79758E+02</wgt>
<wgt id='3219'>0.78995E+02</wgt>
<wgt id='3220'>0.78269E+02</wgt>
<wgt id='3221'>0.79168E+02</wgt>
<wgt id='3222'>0.80115E+02</wgt>
<wgt id='3223'>0.79981E+02</wgt>
<wgt id='3224'>0.78753E+02</wgt>
<wgt id='3225'>0.79983E+02</wgt>
<wgt id='3226'>0.78443E+02</wgt>
<wgt id='3227'>0.78144E+02</wgt>
<wgt id='3228'>0.77898E+02</wgt>
<wgt id='3229'>0.79821E+02</wgt>
<wgt id='3230'>0.79343E+02</wgt>
<wgt id='3231'>0.79109E+02</wgt>
<wgt id='3232'>0.79335E+02</wgt>
<wgt id='3233'>0.79514E+02</wgt>
<wgt id='3234'>0.78224E+02</wgt>
<wgt id='3235'>0.79083E+02</wgt>
<wgt id='3236'>0.78625E+02</wgt>
<wgt id='3237'>0.79130E+02</wgt>
<wgt id='3238'>0.77882E+02</wgt>
<wgt id='3239'>0.78601E+02</wgt>
<wgt id='3240'>0.78074E+02</wgt>
<wgt id='3241'>0.80009E+02</wgt>
<wgt id='3242'>0.78673E+02</wgt>
<wgt id='3243'>0.78581E+02</wgt>
<wgt id='3244'>0.78785E+02</wgt>
<wgt id='3245'>0.79412E+02</wgt>
<wgt id='3246'>0.77362E+02</wgt>
<wgt id='3247'>0.78878E+02</wgt>
<wgt id='3248'>0.78559E+02</wgt>
<wgt id='3249'>0.77851E+02</wgt>
<wgt id='3250'>0.79318E+02</wgt>
<wgt id='3251'>0.78666E+02</wgt>
<wgt id='3252'>0.79504E+02</wgt>
<wgt id='3253'>0.78618E+02</wgt>
<wgt id='3254'>0.78746E+02</wgt>
<wgt id='3255'>0.78504E+02</wgt>
<wgt id='3256'>0.79325E+02</wgt>
<wgt id='3257'>0.78987E+02</wgt>
<wgt id='3258'>0.78708E+02</wgt>
<wgt id='3259'>0.78324E+02</wgt>
<wgt id='3260'>0.78863E+02</wgt>
<wgt id='3261'>0.78838E+02</wgt>
<wgt id='3262'>0.79420E+02</wgt>
<wgt id='3263'>0.79979E+02</wgt>
<wgt id='3264'>0.78852E+02</wgt>
<wgt id='3265'>0.79291E+02</wgt>
<wgt id='3266'>0.79130E+02</wgt>
<wgt id='3267'>0.78808E+02</wgt>
<wgt id='3268'>0.78799E+02</wgt>
<wgt id='3269'>0.79080E+02</wgt>
<wgt id='3270'>0.79962E+02</wgt>
<wgt id='3271'>0.79301E+02</wgt>
<wgt id='3272'>0.79368E+02</wgt>
<wgt id='3273'>0.78900E+02</wgt>
<wgt id='3274'>0.78268E+02</wgt>
<wgt id='3275'>0.79487E+02</wgt>
<wgt id='3276'>0.78345E+02</wgt>
<wgt id='3277'>0.78780E+02</wgt>
<wgt id='3278'>0.79367E+02</wgt>
<wgt id='3279'>0.79443E+02</wgt>
<wgt id='3280'>0.78879E+02</wgt>
<wgt id='3281'>0.79383E+02</wgt>
<wgt id='3282'>0.79297E+02</wgt>
<wgt id='3283'>0.79013E+02</wgt>
<wgt id='3284'>0.79035E+02</wgt>
<wgt id='3285'>0.78701E+02</wgt>
<wgt id='3286'>0.77989E+02</wgt>
<wgt id='3287'>0.79658E+02</wgt>
<wgt id='3288'>0.78939E+02</wgt>
<wgt id='3289'>0.80135E+02</wgt>
<wgt id='3290'>0.78703E+02</wgt>
<wgt id='3291'>0.77630E+02</wgt>
<wgt id='3292'>0.78723E+02</wgt>
<wgt id='3293'>0.78915E+02</wgt>
<wgt id='3294'>0.78375E+02</wgt>
<wgt id='3295'>0.78709E+02</wgt>
<wgt id='3296'>0.79969E+02</wgt>
<wgt id='3297'>0.78761E+02</wgt>
<wgt id='3298'>0.78335E+02</wgt>
<wgt id='3299'>0.79127E+02</wgt>
<wgt id='3300'>0.79765E+02</wgt>
<wgt id='3301'>0.77612E+02</wgt>
<wgt id='3302'>0.80068E+02</wgt>
<wgt id='3400'>0.78532E+02</wgt>
<wgt id='3401'>0.78606E+02</wgt>
<wgt id='3402'>0.77277E+02</wgt>
<wgt id='3403'>0.79202E+02</wgt>
<wgt id='3404'>0.79876E+02</wgt>
<wgt id='3405'>0.78942E+02</wgt>
<wgt id='3406'>0.79668E+02</wgt>
<wgt id='3407'>0.78495E+02</wgt>
<wgt id='3408'>0.79618E+02</wgt>
<wgt id='3409'>0.79541E+02</wgt>
<wgt id='3410'>0.79104E+02</wgt>
<wgt id='3411'>0.79788E+02</wgt>
<wgt id='3412'>0.79422E+02</wgt>
<wgt id='3413'>0.78418E+02</wgt>
<wgt id='3414'>0.77756E+02</wgt>
<wgt id='3415'>0.78198E+02</wgt>
<wgt id='3416'>0.77985E+02</wgt>
<wgt id='3417'>0.78783E+02</wgt>
<wgt id='3418'>0.77734E+02</wgt>
<wgt id='3419'>0.77800E+02</wgt>
<wgt id='3420'>0.78238E+02</wgt>
<wgt id='3421'>0.78202E+02</wgt>
<wgt id='3422'>0.78534E+02</wgt>
<wgt id='3423'>0.79143E+02</wgt>
<wgt id='3424'>0.79152E+02</wgt>
<wgt id='3425'>0.78250E+02</wgt>
<wgt id='3426'>0.78210E+02</wgt>
<wgt id='3427'>0.77875E+02</wgt>
<wgt id='3428'>0.79190E+02</wgt>
<wgt id='3429'>0.77817E+02</wgt>
<wgt id='3430'>0.78535E+02</wgt>
<wgt id='3431'>0.78724E+02</wgt>
<wgt id='3432'>0.79348E+02</wgt>
<wgt id='3433'>0.77837E+02</wgt>
<wgt id='3434'>0.79173E+02</wgt>
<wgt id='3435'>0.79267E+02</wgt>
<wgt id='3436'>0.78278E+02</wgt>
<wgt id='3437'>0.79115E+02</wgt>
<wgt id='3438'>0.77795E+02</wgt>
<wgt id='3439'>0.77598E+02</wgt>
<wgt id='3440'>0.78772E+02</wgt>
<wgt id='3441'>0.78463E+02</wgt>
<wgt id='3442'>0.77286E+02</wgt>
<wgt id='3443'>0.78775E+02</wgt>
<wgt id='3444'>0.77848E+02</wgt>
<wgt id='3445'>0.78152E+02</wgt>
<wgt id='3446'>0.78603E+02</wgt>
<wgt id='3447'>0.78863E+02</wgt>
<wgt id='3448'>0.79877E+02</wgt>
<wgt id='3449'>0.79254E+02</wgt>
<wgt id='3450'>0.78393E+02</wgt>
<wgt id='3451'>0.79398E+02</wgt>
<wgt id='3452'>0.78430E+02</wgt>
<wgt id='3453'>0.77339E+02</wgt>
<wgt id='3454'>0.78346E+02</wgt>
<wgt id='3455'>0.79299E+02</wgt>
<wgt id='3456'>0.78577E+02</wgt>
<wgt id='3457'>0.79328E+02</wgt>
<wgt id='3458'>0.78347E+02</wgt>
<wgt id='3459'>0.78457E+02</wgt>
<wgt id='3460'>0.78331E+02</wgt>
<wgt id='3461'>0.77465E+02</wgt>
<wgt id='3462'>0.78744E+02</wgt>
<wgt id='3463'>0.77437E+02</wgt>
<wgt id='3464'>0.78921E+02</wgt>
<wgt id='3465'>0.79290E+02</wgt>
<wgt id='3466'>0.78875E+02</wgt>
<wgt id='3467'>0.78118E+02</wgt>
<wgt id='3468'>0.78024E+02</wgt>
<wgt id='3469'>0.78009E+02</wgt>
<wgt id='3470'>0.78043E+02</wgt>
<wgt id='3471'>0.78278E+02</wgt>
<wgt id='3472'>0.77363E+02</wgt>
<wgt id='3473'>0.79753E+02</wgt>
<wgt id='3474'>0.78020E+02</wgt>
<wgt id='3475'>0.79050E+02</wgt>
<wgt id='3476'>0.78386E+02</wgt>
<wgt id='3477'>0.77779E+02</wgt>
<wgt id='3478'>0.79686E+02</wgt>
<wgt id='3479'>0.78644E+02</wgt>
<wgt id='3480'>0.78709E+02</wgt>
<wgt id='3481'>0.79108E+02</wgt>
<wgt id='3482'>0.78764E+02</wgt>
<wgt id='3483'>0.78162E+02</wgt>
<wgt id='3484'>0.77941E+02</wgt>
<wgt id='3485'>0.78072E+02</wgt>
<wgt id='3486'>0.76598E+02</wgt>
<wgt id='3487'>0.78375E+02</wgt>
<wgt id='3488'>0.78672E+02</wgt>
<wgt id='3489'>0.77493E+02</wgt>
<wgt id='3490'>0.79377E+02</wgt>
<wgt id='3491'>0.79461E+02</wgt>
<wgt id='3492'>0.78384E+02</wgt>
<wgt id='3493'>0.79147E+02</wgt>
<wgt id='3494'>0.76442E+02</wgt>
<wgt id='3495'>0.78810E+02</wgt>
<wgt id='3496'>0.77726E+02</wgt>
<wgt id='3497'>0.78244E+02</wgt>
<wgt id='3498'>0.79428E+02</wgt>
<wgt id='3499'>0.78095E+02</wgt>
<wgt id='3500'>0.79656E+02</wgt>
</rwgt>
</event>
<event>
     13 322200  8.11039E+01  5.49477E+01 -1.00000E+00  1.34835E-01
      21    -1     0     0   502   503  0.000000000E+00  0.000000000E+00  1.168762948E+03  1.168762948E+03  0.000000000E+00  0.00000E+00  9.000E+00
      21    -1     0     0   504   505  0.000000000E+00  0.000000000E+00 -5.471321423E+01  5.471321423E+01  0.000000000E+00  0.00000E+00  9.000E+00
       6     2     1     2   502     0  3.516666770E+01  6.953795074E+01  1.860735269E+02  2.660341489E+02  1.734318017E+02  0.00000E+00  9.000E+00
      -6     2     1     2     0   505 -5.883388828E+01 -1.994848559E+01  6.901197687E+02  7.133212695E+02  1.694183281E+02  0.00000E+00  9.000E+00
      21     1     1     2   504   503  2.366722059E+01 -4.958946516E+01  2.378564387E+02  2.441207443E+02  3.814697266E-06  0.00000E+00  9.000E+00
      24     2     3     3     0     0  2.029830366E+01 -7.514840607E+00  2.583735020E+01  8.754202912E+01  8.079321900E+01  0.00000E+00  9.000E+00
       5     1     3     3   502     0  1.486836404E+01  7.705279135E+01  1.602361767E+02  1.784921198E+02  5.060000000E+00  0.00000E+00 -1.000E+00
     -24     2     4     4     0     0 -1.996889057E+01  4.748588831E+01  2.750682719E+02  2.910047633E+02  7.979694151E+01  0.00000E+00  9.000E+00
      -5     1     4     4     0   505 -3.886499772E+01 -6.743437390E+01  4.150514968E+02  4.223165062E+02  5.060000000E+00  0.00000E+00  1.000E+00
     -13     1     6     6     0     0  3.823892852E+01  2.443684184E+01  2.276272451E+01  5.076935781E+01  1.057000000E-01  0.00000E+00  1.000E+00
      14     1     6     6     0     0 -1.794062486E+01 -3.195168245E+01  3.074625695E+00  3.677267130E+01  0.000000000E+00  0.00000E+00 -1.000E+00
      15     1     8     8     0     0 -1.923108689E+01 -1.977999239E+01  7.529397411E+01  8.020862215E+01  1.777000000E+00  0.00000E+00 -1.000E+00
     -16     1     8     8     0     0 -7.378036789E-01  6.726588071E+01  1.997742978E+02  2.107961412E+02  0.000000000E+00  0.00000E+00  1.000E+00
#rwgt            1           1   472.45482858623996               10       12560           0
<rwgt>
<wgt id='1001'>0.81104E+02</wgt>
<wgt id='1002'>0.68785E+02</wgt>
<wgt id='1003'>0.97125E+02</wgt>
<wgt id='1004'>0.79704E+02</wgt>
<wgt id='1005'>0.69317E+02</wgt>
<wgt id='1006'>0.92925E+02</wgt>
<wgt id='1007'>0.77992E+02</wgt>
<wgt id='1008'>0.63131E+02</wgt>
<wgt id='1009'>0.97823E+02</wgt>
<wgt id='2000'>0.81104E+02</wgt>
<wgt id='2001'>0.80920E+02</wgt>
<wgt id='2002'>0.81064E+02</wgt>
<wgt id='2003'>0.81221E+02</wgt>
<wgt id='2004'>0.81447E+02</wgt>
<wgt id='2005'>0.80852E+02</wgt>
<wgt id='2006'>0.81349E+02</wgt>
<wgt id='2007'>0.81302E+02</wgt>
<wgt id='2008'>0.81113E+02</wgt>
<wgt id='2009'>0.81354E+02</wgt>
<wgt id='2010'>0.81065E+02</wgt>
<wgt id='2011'>0.81224E+02</wgt>
<wgt id='2012'>0.81385E+02</wgt>
<wgt id='2013'>0.81003E+02</wgt>
<wgt id='2014'>0.80992E+02</wgt>
<wgt id='2015'>0.81029E+02</wgt>
<wgt id='2016'>0.81006E+02</wgt>
<wgt id='2017'>0.81041E+02</wgt>
<wgt id='2018'>0.81068E+02</wgt>
<wgt id='2019'>0.80424E+02</wgt>
<wgt id='2020'>0.81012E+02</wgt>
<wgt id='2021'>0.81285E+02</wgt>
<wgt id='2022'>0.81042E+02</wgt>
<wgt id='2023'>0.81264E+02</wgt>
<wgt id='2024'>0.80561E+02</wgt>
<wgt id='2025'>0.81389E+02</wgt>
<wgt id='2026'>0.81152E+02</wgt>
<wgt id='2027'>0.81567E+02</wgt>
<wgt id='2028'>0.80837E+02</wgt>
<wgt id='2029'>0.81047E+02</wgt>
<wgt id='2030'>0.81322E+02</wgt>
<wgt id='2031'>0.80759E+02</wgt>
<wgt id='2032'>0.80890E+02</wgt>
<wgt id='2033'>0.80975E+02</wgt>
<wgt id='2034'>0.80740E+02</wgt>
<wgt id='2035'>0.81274E+02</wgt>
<wgt id='2036'>0.81195E+02</wgt>
<wgt id='2037'>0.80962E+02</wgt>
<wgt id='2038'>0.81021E+02</wgt>
<wgt id='2039'>0.80979E+02</wgt>
<wgt id='2040'>0.80913E+02</wgt>
<wgt id='2041'>0.81040E+02</wgt>
<wgt id='2042'>0.81259E+02</wgt>
<wgt id='2043'>0.81096E+02</wgt>
<wgt id='2044'>0.81106E+02</wgt>
<wgt id='2045'>0.81060E+02</wgt>
<wgt id='2046'>0.80866E+02</wgt>
<wgt id='2047'>0.81116E+02</wgt>
<wgt id='2048'>0.81095E+02</wgt>
<wgt id='2049'>0.80957E+02</wgt>
<wgt id='2050'>0.81005E+02</wgt>
<wgt id='2051'>0.81013E+02</wgt>
<wgt id='2052'>0.81234E+02</wgt>
<wgt id='2053'>0.81105E+02</wgt>
<wgt id='2054'>0.81035E+02</wgt>
<wgt id='2055'>0.81068E+02</wgt>
<wgt id='2056'>0.81043E+02</wgt>
<wgt id='2057'>0.81104E+02</wgt>
<wgt id='2058'>0.81164E+02</wgt>
<wgt id='2059'>0.81068E+02</wgt>
<wgt id='2060'>0.81087E+02</wgt>
<wgt id='2061'>0.81022E+02</wgt>
<wgt id='2062'>0.81202E+02</wgt>
<wgt id='2063'>0.81085E+02</wgt>
<wgt id='2064'>0.81137E+02</wgt>
<wgt id='2065'>0.81187E+02</wgt>
<wgt id='2066'>0.81013E+02</wgt>
<wgt id='2067'>0.81074E+02</wgt>
<wgt id='2068'>0.81192E+02</wgt>
<wgt id='2069'>0.81081E+02</wgt>
<wgt id='2070'>0.81094E+02</wgt>
<wgt id='2071'>0.81080E+02</wgt>
<wgt id='2072'>0.81101E+02</wgt>
<wgt id='2073'>0.81115E+02</wgt>
<wgt id='2074'>0.81097E+02</wgt>
<wgt id='2075'>0.81098E+02</wgt>
<wgt id='2076'>0.81056E+02</wgt>
<wgt id='2077'>0.81135E+02</wgt>
<wgt id='2078'>0.81118E+02</wgt>
<wgt id='2079'>0.81076E+02</wgt>
<wgt id='2080'>0.81124E+02</wgt>
<wgt id='2081'>0.81105E+02</wgt>
<wgt id='2082'>0.81103E+02</wgt>
<wgt id='2083'>0.81142E+02</wgt>
<wgt id='2084'>0.81090E+02</wgt>
<wgt id='2085'>0.81116E+02</wgt>
<wgt id='2086'>0.81076E+02</wgt>
<wgt id='2087'>0.81105E+02</wgt>
<wgt id='2088'>0.81114E+02</wgt>
<wgt id='2089'>0.81102E+02</wgt>
<wgt id='2090'>0.81133E+02</wgt>
<wgt id='2091'>0.81117E+02</wgt>
<wgt id='2092'>0.81149E+02</wgt>
<wgt id='2093'>0.81078E+02</wgt>
<wgt id='2094'>0.81118E+02</wgt>
<wgt id='2095'>0.81139E+02</wgt>
<wgt id='2096'>0.81079E+02</wgt>
<wgt id='2097'>0.81134E+02</wgt>
<wgt id='2098'>0.81079E+02</wgt>
<wgt id='2099'>0.81119E+02</wgt>
<wgt id='2100'>0.81104E+02</wgt>
<wgt id='2101'>0.79797E+02</wgt>
<wgt id='2102'>0.82304E+02</wgt>
<wgt id='2200'>0.80776E+02</wgt>
<wgt id='2201'>0.73308E+02</wgt>
<wgt id='2202'>0.74885E+02</wgt>
<wgt id='2203'>0.76474E+02</wgt>
<wgt id='2204'>0.77487E+02</wgt>
<wgt id='2205'>0.79984E+02</wgt>
<wgt id='2206'>0.81800E+02</wgt>
<wgt id='2207'>0.83935E+02</wgt>
<wgt id='2208'>0.85826E+02</wgt>
<wgt id='2300'>0.86084E+02</wgt>
<wgt id='2301'>0.86264E+02</wgt>
<wgt id='2302'>0.85954E+02</wgt>
<wgt id='2303'>0.86063E+02</wgt>
<wgt id='2304'>0.86362E+02</wgt>
<wgt id='2305'>0.86172E+02</wgt>
<wgt id='2306'>0.86094E+02</wgt>
<wgt id='2307'>0.86042E+02</wgt>
<wgt id='2308'>0.85918E+02</wgt>
<wgt id='2309'>0.85917E+02</wgt>
<wgt id='2310'>0.85768E+02</wgt>
<wgt id='2311'>0.86165E+02</wgt>
<wgt id='2312'>0.86336E+02</wgt>
<wgt id='2313'>0.85919E+02</wgt>
<wgt id='2314'>0.86078E+02</wgt>
<wgt id='2315'>0.86124E+02</wgt>
<wgt id='2316'>0.86189E+02</wgt>
<wgt id='2317'>0.86104E+02</wgt>
<wgt id='2318'>0.86084E+02</wgt>
<wgt id='2319'>0.86093E+02</wgt>
<wgt id='2320'>0.86318E+02</wgt>
<wgt id='2321'>0.86300E+02</wgt>
<wgt id='2322'>0.85998E+02</wgt>
<wgt id='2323'>0.86062E+02</wgt>
<wgt id='2324'>0.86240E+02</wgt>
<wgt id='2325'>0.86099E+02</wgt>
<wgt id='2326'>0.85841E+02</wgt>
<wgt id='2327'>0.86179E+02</wgt>
<wgt id='2328'>0.86231E+02</wgt>
<wgt id='2329'>0.86116E+02</wgt>
<wgt id='2330'>0.86421E+02</wgt>
<wgt id='2331'>0.86228E+02</wgt>
<wgt id='2332'>0.85746E+02</wgt>
<wgt id='2333'>0.85728E+02</wgt>
<wgt id='2334'>0.86008E+02</wgt>
<wgt id='2335'>0.85398E+02</wgt>
<wgt id='2336'>0.86100E+02</wgt>
<wgt id='2337'>0.86611E+02</wgt>
<wgt id='2338'>0.86074E+02</wgt>
<wgt id='2339'>0.86205E+02</wgt>
<wgt id='2340'>0.86514E+02</wgt>
<wgt id='2341'>0.86247E+02</wgt>
<wgt id='2342'>0.85788E+02</wgt>
<wgt id='2343'>0.85799E+02</wgt>
<wgt id='2344'>0.86208E+02</wgt>
<wgt id='2345'>0.86133E+02</wgt>
<wgt id='2346'>0.86476E+02</wgt>
<wgt id='2347'>0.86062E+02</wgt>
<wgt id='2348'>0.86236E+02</wgt>
<wgt id='2349'>0.86090E+02</wgt>
<wgt id='2350'>0.85830E+02</wgt>
<wgt id='2351'>0.86297E+02</wgt>
<wgt id='2352'>0.85964E+02</wgt>
<wgt id='2353'>0.85990E+02</wgt>
<wgt id='2354'>0.86158E+02</wgt>
<wgt id='2355'>0.85999E+02</wgt>
<wgt id='2356'>0.86046E+02</wgt>
<wgt id='2357'>0.86038E+02</wgt>
<wgt id='2358'>0.86113E+02</wgt>
<wgt id='2359'>0.85964E+02</wgt>
<wgt id='2360'>0.86267E+02</wgt>
<wgt id='2361'>0.86036E+02</wgt>
<wgt id='2362'>0.86139E+02</wgt>
<wgt id='2363'>0.85976E+02</wgt>
<wgt id='2364'>0.86025E+02</wgt>
<wgt id='2365'>0.85958E+02</wgt>
<wgt id='2366'>0.86138E+02</wgt>
<wgt id='2367'>0.85936E+02</wgt>
<wgt id='2368'>0.86157E+02</wgt>
<wgt id='2369'>0.85994E+02</wgt>
<wgt id='2370'>0.86072E+02</wgt>
<wgt id='2371'>0.86008E+02</wgt>
<wgt id='2372'>0.86114E+02</wgt>
<wgt id='2373'>0.86062E+02</wgt>
<wgt id='2374'>0.86196E+02</wgt>
<wgt id='2375'>0.86106E+02</wgt>
<wgt id='2376'>0.86127E+02</wgt>
<wgt id='2377'>0.86136E+02</wgt>
<wgt id='2378'>0.86114E+02</wgt>
<wgt id='2379'>0.86021E+02</wgt>
<wgt id='2380'>0.86026E+02</wgt>
<wgt id='2381'>0.86108E+02</wgt>
<wgt id='2382'>0.86122E+02</wgt>
<wgt id='2383'>0.85996E+02</wgt>
<wgt id='2384'>0.86057E+02</wgt>
<wgt id='2385'>0.86143E+02</wgt>
<wgt id='2386'>0.86025E+02</wgt>
<wgt id='2387'>0.86057E+02</wgt>
<wgt id='2388'>0.86033E+02</wgt>
<wgt id='2389'>0.86076E+02</wgt>
<wgt id='2390'>0.86113E+02</wgt>
<wgt id='2391'>0.86087E+02</wgt>
<wgt id='2392'>0.86072E+02</wgt>
<wgt id='2393'>0.86098E+02</wgt>
<wgt id='2394'>0.86111E+02</wgt>
<wgt id='2395'>0.86050E+02</wgt>
<wgt id='2396'>0.86090E+02</wgt>
<wgt id='2397'>0.86059E+02</wgt>
<wgt id='2398'>0.86046E+02</wgt>
<wgt id='2399'>0.86086E+02</wgt>
<wgt id='2400'>0.86115E+02</wgt>
<wgt id='2401'>0.84820E+02</wgt>
<wgt id='2402'>0.87876E+02</wgt>
<wgt id='2500'>0.82851E+02</wgt>
<wgt id='2501'>0.86956E+02</wgt>
<wgt id='2600'>0.79861E+02</wgt>
<wgt id='2601'>0.79507E+02</wgt>
<wgt id='2602'>0.80044E+02</wgt>
<wgt id='2603'>0.79864E+02</wgt>
<wgt id='2604'>0.79998E+02</wgt>
<wgt id='2605'>0.79794E+02</wgt>
<wgt id='2606'>0.79968E+02</wgt>
<wgt id='2607'>0.79946E+02</wgt>
<wgt id='2608'>0.80033E+02</wgt>
<wgt id='2609'>0.79831E+02</wgt>
<wgt id='2610'>0.79819E+02</wgt>
<wgt id='2611'>0.79867E+02</wgt>
<wgt id='2612'>0.79742E+02</wgt>
<wgt id='2613'>0.79896E+02</wgt>
<wgt id='2614'>0.79765E+02</wgt>
<wgt id='2615'>0.79746E+02</wgt>
<wgt id='2616'>0.79955E+02</wgt>
<wgt id='2617'>0.79708E+02</wgt>
<wgt id='2618'>0.79989E+02</wgt>
<wgt id='2619'>0.79920E+02</wgt>
<wgt id='2620'>0.79626E+02</wgt>
<wgt id='2621'>0.80025E+02</wgt>
<wgt id='2622'>0.80208E+02</wgt>
<wgt id='2623'>0.79816E+02</wgt>
<wgt id='2624'>0.79779E+02</wgt>
<wgt id='2625'>0.80029E+02</wgt>
<wgt id='2626'>0.79942E+02</wgt>
<wgt id='2627'>0.80018E+02</wgt>
<wgt id='2628'>0.79784E+02</wgt>
<wgt id='2629'>0.79990E+02</wgt>
<wgt id='2630'>0.80134E+02</wgt>
<wgt id='2631'>0.79741E+02</wgt>
<wgt id='2632'>0.79664E+02</wgt>
<wgt id='2633'>0.79767E+02</wgt>
<wgt id='2634'>0.79717E+02</wgt>
<wgt id='2635'>0.79701E+02</wgt>
<wgt id='2636'>0.79930E+02</wgt>
<wgt id='2637'>0.79842E+02</wgt>
<wgt id='2638'>0.79818E+02</wgt>
<wgt id='2639'>0.79877E+02</wgt>
<wgt id='2640'>0.79844E+02</wgt>
<wgt id='2641'>0.79785E+02</wgt>
<wgt id='2642'>0.79861E+02</wgt>
<wgt id='2643'>0.79775E+02</wgt>
<wgt id='2644'>0.79849E+02</wgt>
<wgt id='2645'>0.79808E+02</wgt>
<wgt id='2646'>0.79890E+02</wgt>
<wgt id='2647'>0.79846E+02</wgt>
<wgt id='2648'>0.79858E+02</wgt>
<wgt id='2649'>0.79889E+02</wgt>
<wgt id='2650'>0.79878E+02</wgt>
<wgt id='2651'>0.78793E+02</wgt>
<wgt id='2652'>0.80547E+02</wgt>
<wgt id='2700'>0.77966E+02</wgt>
<wgt id='2701'>0.78793E+02</wgt>
<wgt id='2702'>0.79376E+02</wgt>
<wgt id='2703'>0.80366E+02</wgt>
<wgt id='2704'>0.80547E+02</wgt>
<wgt id='2705'>0.81693E+02</wgt>
<wgt id='2800'>0.81929E+02</wgt>
<wgt id='4000'>0.83465E+02</wgt>
<wgt id='4001'>0.83733E+02</wgt>
<wgt id='4002'>0.83563E+02</wgt>
<wgt id='4003'>0.82468E+02</wgt>
<wgt id='4004'>0.84596E+02</wgt>
<wgt id='4005'>0.84073E+02</wgt>
<wgt id='4006'>0.83158E+02</wgt>
<wgt id='4007'>0.83660E+02</wgt>
<wgt id='4008'>0.83338E+02</wgt>
<wgt id='4009'>0.82736E+02</wgt>
<wgt id='4010'>0.83712E+02</wgt>
<wgt id='4011'>0.84165E+02</wgt>
<wgt id='4012'>0.82608E+02</wgt>
<wgt id='4013'>0.83438E+02</wgt>
<wgt id='4014'>0.83733E+02</wgt>
<wgt id='4015'>0.84191E+02</wgt>
<wgt id='4016'>0.84320E+02</wgt>
<wgt id='4017'>0.83629E+02</wgt>
<wgt id='4018'>0.83330E+02</wgt>
<wgt id='4019'>0.83149E+02</wgt>
<wgt id='4020'>0.84130E+02</wgt>
<wgt id='4021'>0.83735E+02</wgt>
<wgt id='4022'>0.83001E+02</wgt>
<wgt id='4023'>0.83905E+02</wgt>
<wgt id='4024'>0.83983E+02</wgt>
<wgt id='4025'>0.83280E+02</wgt>
<wgt id='4026'>0.84059E+02</wgt>
<wgt id='4027'>0.84392E+02</wgt>
<wgt id='4028'>0.82787E+02</wgt>
<wgt id='4029'>0.85039E+02</wgt>
<wgt id='4030'>0.82452E+02</wgt>
<wgt id='4031'>0.83570E+02</wgt>
<wgt id='4032'>0.84980E+02</wgt>
<wgt id='4033'>0.84192E+02</wgt>
<wgt id='4034'>0.83079E+02</wgt>
<wgt id='4035'>0.83493E+02</wgt>
<wgt id='4036'>0.83593E+02</wgt>
<wgt id='4037'>0.86316E+02</wgt>
<wgt id='4038'>0.81308E+02</wgt>
<wgt id='4039'>0.85041E+02</wgt>
<wgt id='4040'>0.82188E+02</wgt>
<wgt id='4041'>0.84248E+02</wgt>
<wgt id='4042'>0.82727E+02</wgt>
<wgt id='4043'>0.83781E+02</wgt>
<wgt id='4044'>0.82633E+02</wgt>
<wgt id='4045'>0.83124E+02</wgt>
<wgt id='4046'>0.83689E+02</wgt>
<wgt id='4047'>0.83886E+02</wgt>
<wgt id='4048'>0.83877E+02</wgt>
<wgt id='4049'>0.83673E+02</wgt>
<wgt id='4050'>0.83587E+02</wgt>
<wgt id='4051'>0.83425E+02</wgt>
<wgt id='4052'>0.83825E+02</wgt>
<wgt id='4053'>0.83089E+02</wgt>
<wgt id='4054'>0.83451E+02</wgt>
<wgt id='4055'>0.84072E+02</wgt>
<wgt id='4056'>0.83171E+02</wgt>
<wgt id='4057'>0.82894E+02</wgt>
<wgt id='4058'>0.83877E+02</wgt>
<wgt id='4100'>0.84109E+02</wgt>
<wgt id='4101'>0.83739E+02</wgt>
<wgt id='4102'>0.83271E+02</wgt>
<wgt id='4103'>0.83130E+02</wgt>
<wgt id='4200'>0.82261E+02</wgt>
<wgt id='4201'>0.82255E+02</wgt>
<wgt id='4202'>0.82566E+02</wgt>
<wgt id='4203'>0.82114E+02</wgt>
<wgt id='4204'>0.82209E+02</wgt>
<wgt id='4205'>0.82229E+02</wgt>
<wgt id='4206'>0.82624E+02</wgt>
<wgt id='4207'>0.83076E+02</wgt>
<wgt id='4208'>0.81850E+02</wgt>
<wgt id='4209'>0.81795E+02</wgt>
<wgt id='4210'>0.82575E+02</wgt>
<wgt id='4211'>0.82627E+02</wgt>
<wgt id='4212'>0.82005E+02</wgt>
<wgt id='4213'>0.82437E+02</wgt>
<wgt id='4214'>0.82025E+02</wgt>
<wgt id='4215'>0.82301E+02</wgt>
<wgt id='4216'>0.82464E+02</wgt>
<wgt id='4217'>0.82413E+02</wgt>
<wgt id='4218'>0.82096E+02</wgt>
<wgt id='4219'>0.82308E+02</wgt>
<wgt id='4220'>0.82443E+02</wgt>
<wgt id='4221'>0.82045E+02</wgt>
<wgt id='4222'>0.82774E+02</wgt>
<wgt id='4223'>0.80923E+02</wgt>
<wgt id='4224'>0.82407E+02</wgt>
<wgt id='4225'>0.81773E+02</wgt>
<wgt id='4226'>0.83206E+02</wgt>
<wgt id='4227'>0.82787E+02</wgt>
<wgt id='4228'>0.81846E+02</wgt>
<wgt id='4229'>0.81111E+02</wgt>
<wgt id='4230'>0.83322E+02</wgt>
<wgt id='4231'>0.82668E+02</wgt>
<wgt id='4232'>0.81656E+02</wgt>
<wgt id='4233'>0.82350E+02</wgt>
<wgt id='4234'>0.81594E+02</wgt>
<wgt id='4235'>0.83234E+02</wgt>
<wgt id='4236'>0.81405E+02</wgt>
<wgt id='4237'>0.83861E+02</wgt>
<wgt id='4238'>0.80090E+02</wgt>
<wgt id='4239'>0.81749E+02</wgt>
<wgt id='4240'>0.82802E+02</wgt>
<wgt id='4241'>0.82507E+02</wgt>
<wgt id='4242'>0.82071E+02</wgt>
<wgt id='4243'>0.82798E+02</wgt>
<wgt id='4244'>0.81803E+02</wgt>
<wgt id='4245'>0.82658E+02</wgt>
<wgt id='4246'>0.81488E+02</wgt>
<wgt id='4247'>0.81456E+02</wgt>
<wgt id='4248'>0.82729E+02</wgt>
<wgt id='4249'>0.83195E+02</wgt>
<wgt id='4250'>0.81184E+02</wgt>
<wgt id='4251'>0.83388E+02</wgt>
<wgt id='4252'>0.81515E+02</wgt>
<wgt id='4253'>0.82910E+02</wgt>
<wgt id='4254'>0.81448E+02</wgt>
<wgt id='4255'>0.83855E+02</wgt>
<wgt id='4256'>0.81615E+02</wgt>
<wgt id='4257'>0.80960E+02</wgt>
<wgt id='4258'>0.82645E+02</wgt>
<wgt id='4300'>0.82454E+02</wgt>
<wgt id='4301'>0.83820E+02</wgt>
<wgt id='5000'>0.83364E+02</wgt>
<wgt id='5001'>0.83427E+02</wgt>
<wgt id='5002'>0.83283E+02</wgt>
<wgt id='5003'>0.83376E+02</wgt>
<wgt id='5004'>0.83352E+02</wgt>
<wgt id='5005'>0.83407E+02</wgt>
<wgt id='5006'>0.83294E+02</wgt>
<wgt id='5007'>0.83477E+02</wgt>
<wgt id='5008'>0.83272E+02</wgt>
<wgt id='5009'>0.83469E+02</wgt>
<wgt id='5010'>0.83256E+02</wgt>
<wgt id='5011'>0.83628E+02</wgt>
<wgt id='5012'>0.83110E+02</wgt>
<wgt id='5013'>0.83465E+02</wgt>
<wgt id='5014'>0.83292E+02</wgt>
<wgt id='5015'>0.82980E+02</wgt>
<wgt id='5016'>0.82980E+02</wgt>
<wgt id='5017'>0.83682E+02</wgt>
<wgt id='5018'>0.83149E+02</wgt>
<wgt id='5019'>0.83572E+02</wgt>
<wgt id='5020'>0.83077E+02</wgt>
<wgt id='5021'>0.83465E+02</wgt>
<wgt id='5022'>0.83205E+02</wgt>
<wgt id='5023'>0.83331E+02</wgt>
<wgt id='5024'>0.83443E+02</wgt>
<wgt id='5025'>0.83193E+02</wgt>
<wgt id='5026'>0.83554E+02</wgt>
<wgt id='5027'>0.83416E+02</wgt>
<wgt id='5028'>0.83224E+02</wgt>
<wgt id='5029'>0.84298E+02</wgt>
<wgt id='5030'>0.82838E+02</wgt>
<wgt id='5031'>0.82833E+02</wgt>
<wgt id='5032'>0.84992E+02</wgt>
<wgt id='5033'>0.83315E+02</wgt>
<wgt id='5034'>0.83416E+02</wgt>
<wgt id='5035'>0.83376E+02</wgt>
<wgt id='5036'>0.83348E+02</wgt>
<wgt id='5037'>0.83116E+02</wgt>
<wgt id='5038'>0.83504E+02</wgt>
<wgt id='5039'>0.83505E+02</wgt>
<wgt id='5040'>0.83013E+02</wgt>
<wgt id='5041'>0.83052E+02</wgt>
<wgt id='5042'>0.83693E+02</wgt>
<wgt id='5043'>0.83511E+02</wgt>
<wgt id='5044'>0.83257E+02</wgt>
<wgt id='5045'>0.83756E+02</wgt>
<wgt id='5046'>0.82620E+02</wgt>
<wgt id='5047'>0.83457E+02</wgt>
<wgt id='5048'>0.82951E+02</wgt>
<wgt id='5049'>0.83233E+02</wgt>
<wgt id='5050'>0.83633E+02</wgt>
<wgt id='5051'>0.83620E+02</wgt>
<wgt id='5052'>0.83192E+02</wgt>
<wgt id='5053'>0.83535E+02</wgt>
<wgt id='5054'>0.83569E+02</wgt>
<wgt id='5055'>0.83403E+02</wgt>
<wgt id='5056'>0.83357E+02</wgt>
<wgt id='5057'>0.83042E+02</wgt>
<wgt id='5058'>0.83592E+02</wgt>
<wgt id='5059'>0.83183E+02</wgt>
<wgt id='5060'>0.83447E+02</wgt>
<wgt id='5061'>0.83487E+02</wgt>
<wgt id='5062'>0.83702E+02</wgt>
<wgt id='5063'>0.83572E+02</wgt>
<wgt id='5064'>0.83534E+02</wgt>
<wgt id='5100'>0.83364E+02</wgt>
<wgt id='5101'>0.83356E+02</wgt>
<wgt id='6000'>0.82274E+02</wgt>
<wgt id='6001'>0.81737E+02</wgt>
<wgt id='6002'>0.81618E+02</wgt>
<wgt id='6003'>0.82146E+02</wgt>
<wgt id='6004'>0.82668E+02</wgt>
<wgt id='6005'>0.81722E+02</wgt>
<wgt id='6006'>0.82130E+02</wgt>
<wgt id='6007'>0.81681E+02</wgt>
<wgt id='6008'>0.82632E+02</wgt>
<wgt id='6009'>0.81939E+02</wgt>
<wgt id='6010'>0.82787E+02</wgt>
<wgt id='6011'>0.82233E+02</wgt>
<wgt id='6012'>0.82365E+02</wgt>
<wgt id='6013'>0.81817E+02</wgt>
<wgt id='6014'>0.81909E+02</wgt>
<wgt id='6015'>0.81563E+02</wgt>
<wgt id='6016'>0.82815E+02</wgt>
<wgt id='6017'>0.81789E+02</wgt>
<wgt id='6018'>0.81598E+02</wgt>
<wgt id='6019'>0.82313E+02</wgt>
<wgt id='6020'>0.82459E+02</wgt>
<wgt id='6021'>0.82112E+02</wgt>
<wgt id='6022'>0.82572E+02</wgt>
<wgt id='6023'>0.82188E+02</wgt>
<wgt id='6024'>0.82374E+02</wgt>
<wgt id='6025'>0.82778E+02</wgt>
<wgt id='6026'>0.82250E+02</wgt>
<wgt id='6027'>0.82296E+02</wgt>
<wgt id='6028'>0.81823E+02</wgt>
<wgt id='6029'>0.81986E+02</wgt>
<wgt id='6030'>0.81411E+02</wgt>
<wgt id='6031'>0.81999E+02</wgt>
<wgt id='6032'>0.82218E+02</wgt>
<wgt id='6033'>0.82206E+02</wgt>
<wgt id='6034'>0.82719E+02</wgt>
<wgt id='6035'>0.82332E+02</wgt>
<wgt id='6036'>0.83205E+02</wgt>
<wgt id='6037'>0.82235E+02</wgt>
<wgt id='6038'>0.82143E+02</wgt>
<wgt id='6039'>0.82538E+02</wgt>
<wgt id='6040'>0.82252E+02</wgt>
<wgt id='6041'>0.81393E+02</wgt>
<wgt id='6042'>0.83199E+02</wgt>
<wgt id='7000'>0.80749E+02</wgt>
<wgt id='7001'>0.80429E+02</wgt>
<wgt id='7002'>0.80590E+02</wgt>
<wgt id='7003'>0.80531E+02</wgt>
<wgt id='7004'>0.80488E+02</wgt>
<wgt id='7005'>0.80553E+02</wgt>
<wgt id='7006'>0.80466E+02</wgt>
<wgt id='7007'>0.80909E+02</wgt>
<wgt id='7008'>0.80121E+02</wgt>
<wgt id='7009'>0.80184E+02</wgt>
<wgt id='7010'>0.80846E+02</wgt>
<wgt id='7011'>0.80660E+02</wgt>
<wgt id='7012'>0.80365E+02</wgt>
<wgt id='7013'>0.80432E+02</wgt>
<wgt id='7014'>0.80584E+02</wgt>
<wgt id='7015'>0.80700E+02</wgt>
<wgt id='7016'>0.80211E+02</wgt>
<wgt id='7017'>0.80313E+02</wgt>
<wgt id='7018'>0.80710E+02</wgt>
<wgt id='7019'>0.80797E+02</wgt>
<wgt id='7020'>0.80231E+02</wgt>
<wgt id='7021'>0.81732E+02</wgt>
<wgt id='7022'>0.79349E+02</wgt>
<wgt id='7023'>0.79381E+02</wgt>
<wgt id='7024'>0.81674E+02</wgt>
<wgt id='7025'>0.78998E+02</wgt>
<wgt id='7026'>0.82029E+02</wgt>
<wgt id='7027'>0.79761E+02</wgt>
<wgt id='7028'>0.81311E+02</wgt>
<wgt id='8000'>0.81641E+02</wgt>
<wgt id='8001'>0.81635E+02</wgt>
<wgt id='8002'>0.81666E+02</wgt>
<wgt id='8003'>0.81640E+02</wgt>
<wgt id='8004'>0.81639E+02</wgt>
<wgt id='8005'>0.81478E+02</wgt>
<wgt id='8006'>0.81728E+02</wgt>
<wgt id='8007'>0.81779E+02</wgt>
<wgt id='8008'>0.81790E+02</wgt>
<wgt id='8009'>0.81925E+02</wgt>
<wgt id='8010'>0.81576E+02</wgt>
<wgt id='8011'>0.81655E+02</wgt>
<wgt id='8012'>0.81403E+02</wgt>
<wgt id='8013'>0.81497E+02</wgt>
<wgt id='8014'>0.81820E+02</wgt>
<wgt id='8015'>0.81566E+02</wgt>
<wgt id='8016'>0.81752E+02</wgt>
<wgt id='8017'>0.81780E+02</wgt>
<wgt id='8018'>0.81908E+02</wgt>
<wgt id='8019'>0.81465E+02</wgt>
<wgt id='8020'>0.81985E+02</wgt>
<wgt id='8021'>0.81474E+02</wgt>
<wgt id='8022'>0.82284E+02</wgt>
<wgt id='8023'>0.81290E+02</wgt>
<wgt id='8024'>0.81042E+02</wgt>
<wgt id='8025'>0.81159E+02</wgt>
<wgt id='8026'>0.81624E+02</wgt>
<wgt id='8027'>0.81817E+02</wgt>
<wgt id='8028'>0.81638E+02</wgt>
<wgt id='8029'>0.83501E+02</wgt>
<wgt id='3000'>0.81104E+02</wgt>
<wgt id='3001'>0.81902E+02</wgt>
<wgt id='3002'>0.80419E+02</wgt>
<wgt id='3003'>0.81817E+02</wgt>
<wgt id='3004'>0.81614E+02</wgt>
<wgt id='3005'>0.83225E+02</wgt>
<wgt id='3006'>0.79814E+02</wgt>
<wgt id='3007'>0.78545E+02</wgt>
<wgt id='3008'>0.78455E+02</wgt>
<wgt id='3009'>0.80249E+02</wgt>
<wgt id='3010'>0.84820E+02</wgt>
<wgt id='3011'>0.82516E+02</wgt>
<wgt id='3012'>0.78885E+02</wgt>
<wgt id='3013'>0.80286E+02</wgt>
<wgt id='3014'>0.80928E+02</wgt>
<wgt id='3015'>0.79679E+02</wgt>
<wgt id='3016'>0.81269E+02</wgt>
<wgt id='3017'>0.81423E+02</wgt>
<wgt id='3018'>0.79485E+02</wgt>
<wgt id='3019'>0.80979E+02</wgt>
<wgt id='3020'>0.81277E+02</wgt>
<wgt id='3021'>0.78564E+02</wgt>
<wgt id='3022'>0.80223E+02</wgt>
<wgt id='3023'>0.80239E+02</wgt>
<wgt id='3024'>0.81462E+02</wgt>
<wgt id='3025'>0.79561E+02</wgt>
<wgt id='3026'>0.80004E+02</wgt>
<wgt id='3027'>0.83272E+02</wgt>
<wgt id='3028'>0.77497E+02</wgt>
<wgt id='3029'>0.81450E+02</wgt>
<wgt id='3030'>0.80054E+02</wgt>
<wgt id='3031'>0.81526E+02</wgt>
<wgt id='3032'>0.78044E+02</wgt>
<wgt id='3033'>0.80082E+02</wgt>
<wgt id='3034'>0.82148E+02</wgt>
<wgt id='3035'>0.82846E+02</wgt>
<wgt id='3036'>0.81306E+02</wgt>
<wgt id='3037'>0.80158E+02</wgt>
<wgt id='3038'>0.82559E+02</wgt>
<wgt id='3039'>0.79062E+02</wgt>
<wgt id='3040'>0.80550E+02</wgt>
<wgt id='3041'>0.81802E+02</wgt>
<wgt id='3042'>0.80571E+02</wgt>
<wgt id='3043'>0.82487E+02</wgt>
<wgt id='3044'>0.81907E+02</wgt>
<wgt id='3045'>0.81216E+02</wgt>
<wgt id='3046'>0.81611E+02</wgt>
<wgt id='3047'>0.81958E+02</wgt>
<wgt id='3048'>0.83339E+02</wgt>
<wgt id='3049'>0.81009E+02</wgt>
<wgt id='3050'>0.82532E+02</wgt>
<wgt id='3051'>0.79299E+02</wgt>
<wgt id='3052'>0.79837E+02</wgt>
<wgt id='3053'>0.82827E+02</wgt>
<wgt id='3054'>0.78373E+02</wgt>
<wgt id='3055'>0.82221E+02</wgt>
<wgt id='3056'>0.80749E+02</wgt>
<wgt id='3057'>0.79350E+02</wgt>
<wgt id='3058'>0.83561E+02</wgt>
<wgt id='3059'>0.80000E+02</wgt>
<wgt id='3060'>0.80225E+02</wgt>
<wgt id='3061'>0.79638E+02</wgt>
<wgt id='3062'>0.82116E+02</wgt>
<wgt id='3063'>0.82994E+02</wgt>
<wgt id='3064'>0.83555E+02</wgt>
<wgt id='3065'>0.79178E+02</wgt>
<wgt id='3066'>0.82559E+02</wgt>
<wgt id='3067'>0.80339E+02</wgt>
<wgt id='3068'>0.79794E+02</wgt>
<wgt id='3069'>0.80445E+02</wgt>
<wgt id='3070'>0.82029E+02</wgt>
<wgt id='3071'>0.81418E+02</wgt>
<wgt id='3072'>0.82819E+02</wgt>
<wgt id='3073'>0.80702E+02</wgt>
<wgt id='3074'>0.80071E+02</wgt>
<wgt id='3075'>0.81046E+02</wgt>
<wgt id='3076'>0.83317E+02</wgt>
<wgt id='3077'>0.83048E+02</wgt>
<wgt id='3078'>0.78845E+02</wgt>
<wgt id='3079'>0.81617E+02</wgt>
<wgt id='3080'>0.84584E+02</wgt>
<wgt id='3081'>0.82474E+02</wgt>
<wgt id='3082'>0.81269E+02</wgt>
<wgt id='3083'>0.81663E+02</wgt>
<wgt id='3084'>0.80222E+02</wgt>
<wgt id='3085'>0.80165E+02</wgt>
<wgt id='3086'>0.83215E+02</wgt>
<wgt id='3087'>0.79437E+02</wgt>
<wgt id='3088'>0.81546E+02</wgt>
<wgt id='3089'>0.84840E+02</wgt>
<wgt id='3090'>0.79968E+02</wgt>
<wgt id='3091'>0.80388E+02</wgt>
<wgt id='3092'>0.81959E+02</wgt>
<wgt id='3093'>0.81843E+02</wgt>
<wgt id='3094'>0.81978E+02</wgt>
<wgt id='3095'>0.78094E+02</wgt>
<wgt id='3096'>0.80771E+02</wgt>
<wgt id='3097'>0.86054E+02</wgt>
<wgt id='3098'>0.81012E+02</wgt>
<wgt id='3099'>0.79614E+02</wgt>
<wgt id='3100'>0.80580E+02</wgt>
<wgt id='3200'>0.79985E+02</wgt>
<wgt id='3201'>0.79144E+02</wgt>
<wgt id='3202'>0.78107E+02</wgt>
<wgt id='3203'>0.80544E+02</wgt>
<wgt id='3204'>0.79850E+02</wgt>
<wgt id='3205'>0.79932E+02</wgt>
<wgt id='3206'>0.81290E+02</wgt>
<wgt id='3207'>0.80551E+02</wgt>
<wgt id='3208'>0.80110E+02</wgt>
<wgt id='3209'>0.80006E+02</wgt>
<wgt id='3210'>0.80176E+02</wgt>
<wgt id='3211'>0.80133E+02</wgt>
<wgt id='3212'>0.80627E+02</wgt>
<wgt id='3213'>0.80619E+02</wgt>
<wgt id='3214'>0.79411E+02</wgt>
<wgt id='3215'>0.79856E+02</wgt>
<wgt id='3216'>0.80313E+02</wgt>
<wgt id='3217'>0.80354E+02</wgt>
<wgt id='3218'>0.81538E+02</wgt>
<wgt id='3219'>0.79922E+02</wgt>
<wgt id='3220'>0.78834E+02</wgt>
<wgt id='3221'>0.79686E+02</wgt>
<wgt id='3222'>0.79893E+02</wgt>
<wgt id='3223'>0.81233E+02</wgt>
<wgt id='3224'>0.79621E+02</wgt>
<wgt id='3225'>0.80798E+02</wgt>
<wgt id='3226'>0.78706E+02</wgt>
<wgt id='3227'>0.78901E+02</wgt>
<wgt id='3228'>0.79668E+02</wgt>
<wgt id='3229'>0.81197E+02</wgt>
<wgt id='3230'>0.80172E+02</wgt>
<wgt id='3231'>0.80027E+02</wgt>
<wgt id='3232'>0.80062E+02</wgt>
<wgt id='3233'>0.79635E+02</wgt>
<wgt id='3234'>0.78404E+02</wgt>
<wgt id='3235'>0.80429E+02</wgt>
<wgt id='3236'>0.80931E+02</wgt>
<wgt id='3237'>0.80268E+02</wgt>
<wgt id='3238'>0.79328E+02</wgt>
<wgt id='3239'>0.79301E+02</wgt>
<wgt id='3240'>0.78496E+02</wgt>
<wgt id='3241'>0.80677E+02</wgt>
<wgt id='3242'>0.80367E+02</wgt>
<wgt id='3243'>0.81281E+02</wgt>
<wgt id='3244'>0.80612E+02</wgt>
<wgt id='3245'>0.80629E+02</wgt>
<wgt id='3246'>0.78227E+02</wgt>
<wgt id='3247'>0.78239E+02</wgt>
<wgt id='3248'>0.79810E+02</wgt>
<wgt id='3249'>0.78857E+02</wgt>
<wgt id='3250'>0.79573E+02</wgt>
<wgt id='3251'>0.79382E+02</wgt>
<wgt id='3252'>0.81129E+02</wgt>
<wgt id='3253'>0.80797E+02</wgt>
<wgt id='3254'>0.80118E+02</wgt>
<wgt id='3255'>0.78649E+02</wgt>
<wgt id='3256'>0.80087E+02</wgt>
<wgt id='3257'>0.79962E+02</wgt>
<wgt id='3258'>0.78930E+02</wgt>
<wgt id='3259'>0.78247E+02</wgt>
<wgt id='3260'>0.79801E+02</wgt>
<wgt id='3261'>0.78511E+02</wgt>
<wgt id='3262'>0.81703E+02</wgt>
<wgt id='3263'>0.80044E+02</wgt>
<wgt id='3264'>0.80411E+02</wgt>
<wgt id='3265'>0.81005E+02</wgt>
<wgt id='3266'>0.80268E+02</wgt>
<wgt id='3267'>0.80215E+02</wgt>
<wgt id='3268'>0.78677E+02</wgt>
<wgt id='3269'>0.79611E+02</wgt>
<wgt id='3270'>0.82158E+02</wgt>
<wgt id='3271'>0.79963E+02</wgt>
<wgt id='3272'>0.79804E+02</wgt>
<wgt id='3273'>0.80263E+02</wgt>
<wgt id='3274'>0.79200E+02</wgt>
<wgt id='3275'>0.81003E+02</wgt>
<wgt id='3276'>0.79262E+02</wgt>
<wgt id='3277'>0.80631E+02</wgt>
<wgt id='3278'>0.81103E+02</wgt>
<wgt id='3279'>0.79959E+02</wgt>
<wgt id='3280'>0.79702E+02</wgt>
<wgt id='3281'>0.80782E+02</wgt>
<wgt id='3282'>0.80025E+02</wgt>
<wgt id='3283'>0.80150E+02</wgt>
<wgt id='3284'>0.78757E+02</wgt>
<wgt id='3285'>0.80435E+02</wgt>
<wgt id='3286'>0.78916E+02</wgt>
<wgt id='3287'>0.82644E+02</wgt>
<wgt id='3288'>0.78826E+02</wgt>
<wgt id='3289'>0.80901E+02</wgt>
<wgt id='3290'>0.78134E+02</wgt>
<wgt id='3291'>0.79916E+02</wgt>
<wgt id='3292'>0.80446E+02</wgt>
<wgt id='3293'>0.79843E+02</wgt>
<wgt id='3294'>0.80987E+02</wgt>
<wgt id='3295'>0.79951E+02</wgt>
<wgt id='3296'>0.80391E+02</wgt>
<wgt id='3297'>0.80558E+02</wgt>
<wgt id='3298'>0.78433E+02</wgt>
<wgt id='3299'>0.80677E+02</wgt>
<wgt id='3300'>0.80757E+02</wgt>
<wgt id='3301'>0.78793E+02</wgt>
<wgt id='3302'>0.80547E+02</wgt>
<wgt id='3400'>0.78619E+02</wgt>
<wgt id='3401'>0.79124E+02</wgt>
<wgt id='3402'>0.76857E+02</wgt>
<wgt id='3403'>0.79407E+02</wgt>
<wgt id='3404'>0.79822E+02</wgt>
<wgt id='3405'>0.78699E+02</wgt>
<wgt id='3406'>0.80609E+02</wgt>
<wgt id='3407'>0.79091E+02</wgt>
<wgt id='3408'>0.78877E+02</wgt>
<wgt id='3409'>0.78338E+02</wgt>
<wgt id='3410'>0.78945E+02</wgt>
<wgt id='3411'>0.80317E+02</wgt>
<wgt id='3412'>0.79476E+02</wgt>
<wgt id='3413'>0.78347E+02</wgt>
<wgt id='3414'>0.77907E+02</wgt>
<wgt id='3415'>0.78828E+02</wgt>
<wgt id='3416'>0.78197E+02</wgt>
<wgt id='3417'>0.79757E+02</wgt>
<wgt id='3418'>0.77904E+02</wgt>
<wgt id='3419'>0.78347E+02</wgt>
<wgt id='3420'>0.77864E+02</wgt>
<wgt id='3421'>0.77624E+02</wgt>
<wgt id='3422'>0.78044E+02</wgt>
<wgt id='3423'>0.79929E+02</wgt>
<wgt id='3424'>0.79224E+02</wgt>
<wgt id='3425'>0.77349E+02</wgt>
<wgt id='3426'>0.77930E+02</wgt>
<wgt id='3427'>0.77387E+02</wgt>
<wgt id='3428'>0.78899E+02</wgt>
<wgt id='3429'>0.77655E+02</wgt>
<wgt id='3430'>0.78349E+02</wgt>
<wgt id='3431'>0.79326E+02</wgt>
<wgt id='3432'>0.80583E+02</wgt>
<wgt id='3433'>0.78853E+02</wgt>
<wgt id='3434'>0.80137E+02</wgt>
<wgt id='3435'>0.79602E+02</wgt>
<wgt id='3436'>0.78416E+02</wgt>
<wgt id='3437'>0.80492E+02</wgt>
<wgt id='3438'>0.78124E+02</wgt>
<wgt id='3439'>0.76279E+02</wgt>
<wgt id='3440'>0.78812E+02</wgt>
<wgt id='3441'>0.78910E+02</wgt>
<wgt id='3442'>0.78386E+02</wgt>
<wgt id='3443'>0.79597E+02</wgt>
<wgt id='3444'>0.77369E+02</wgt>
<wgt id='3445'>0.77838E+02</wgt>
<wgt id='3446'>0.78427E+02</wgt>
<wgt id='3447'>0.78243E+02</wgt>
<wgt id='3448'>0.80223E+02</wgt>
<wgt id='3449'>0.78639E+02</wgt>
<wgt id='3450'>0.77611E+02</wgt>
<wgt id='3451'>0.79454E+02</wgt>
<wgt id='3452'>0.78285E+02</wgt>
<wgt id='3453'>0.77120E+02</wgt>
<wgt id='3454'>0.78804E+02</wgt>
<wgt id='3455'>0.79127E+02</wgt>
<wgt id='3456'>0.78728E+02</wgt>
<wgt id='3457'>0.78028E+02</wgt>
<wgt id='3458'>0.77430E+02</wgt>
<wgt id='3459'>0.78905E+02</wgt>
<wgt id='3460'>0.78306E+02</wgt>
<wgt id='3461'>0.77616E+02</wgt>
<wgt id='3462'>0.79205E+02</wgt>
<wgt id='3463'>0.77516E+02</wgt>
<wgt id='3464'>0.78655E+02</wgt>
<wgt id='3465'>0.79193E+02</wgt>
<wgt id='3466'>0.79271E+02</wgt>
<wgt id='3467'>0.78328E+02</wgt>
<wgt id='3468'>0.77780E+02</wgt>
<wgt id='3469'>0.77032E+02</wgt>
<wgt id='3470'>0.77949E+02</wgt>
<wgt id='3471'>0.78136E+02</wgt>
<wgt id='3472'>0.76780E+02</wgt>
<wgt id='3473'>0.80636E+02</wgt>
<wgt id='3474'>0.77500E+02</wgt>
<wgt id='3475'>0.79091E+02</wgt>
<wgt id='3476'>0.78545E+02</wgt>
<wgt id='3477'>0.77169E+02</wgt>
<wgt id='3478'>0.79560E+02</wgt>
<wgt id='3479'>0.78293E+02</wgt>
<wgt id='3480'>0.79549E+02</wgt>
<wgt id='3481'>0.80199E+02</wgt>
<wgt id='3482'>0.78859E+02</wgt>
<wgt id='3483'>0.79028E+02</wgt>
<wgt id='3484'>0.77526E+02</wgt>
<wgt id='3485'>0.78000E+02</wgt>
<wgt id='3486'>0.76353E+02</wgt>
<wgt id='3487'>0.77023E+02</wgt>
<wgt id='3488'>0.78422E+02</wgt>
<wgt id='3489'>0.77451E+02</wgt>
<wgt id='3490'>0.79227E+02</wgt>
<wgt id='3491'>0.81148E+02</wgt>
<wgt id='3492'>0.77886E+02</wgt>
<wgt id='3493'>0.81029E+02</wgt>
<wgt id='3494'>0.77427E+02</wgt>
<wgt id='3495'>0.79921E+02</wgt>
<wgt id='3496'>0.77527E+02</wgt>
<wgt id='3497'>0.78417E+02</wgt>
<wgt id='3498'>0.80551E+02</wgt>
<wgt id='3499'>0.78090E+02</wgt>
<wgt id='3500'>0.80932E+02</wgt>
</rwgt>
</event>
<event>
     13 322200  8.11039E+01  2.96318E+01 -1.00000E+00  1.50960E-01
      21    -1     0     0   504   505  0.000000000E+00  0.000000000E+00  3.860889972E+02  3.860889972E+02  0.000000000E+00  0.00000E+00  9.000E+00
      21    -1     0     0   503   504  0.000000000E+00  0.000000000E+00 -1.404397726E+02  1.404397726E+02  0.000000000E+00  0.00000E+00  9.000E+00
       6     2     1     2   502     0  3.326244509E+01  9.689822794E+01  1.733723598E+02  2.652585567E+02  1.726512958E+02  0.00000E+00  9.000E+00
      -6     2     1     2     0   505 -5.875608382E+01 -8.179472470E+01  1.634720995E+01  1.979759186E+02  1.696601859E+02  0.00000E+00  9.000E+00
      21     1     1     2   503   502  2.549363873E+01 -1.510350324E+01  5.592965491E+01  6.329429456E+01  6.743495762E-07  0.00000E+00  9.000E+00
      24     2     3     3     0     0  5.071938119E+01  1.291595521E+02  1.563778575E+02  2.245160192E+02  8.184597139E+01  0.00000E+00  9.000E+00
       5     1     3     3   502     0 -1.745693610E+01 -3.226132415E+01  1.699450226E+01  4.074253749E+01  5.060000000E+00  0.00000E+00 -1.000E+00
     -24     2     4     4     0     0  1.618353220E+00 -1.019581021E+02  2.983417370E+01  1.327138604E+02  7.952871922E+01  0.00000E+00  9.000E+00
      -5     1     4     4     0   505 -6.037443704E+01  2.016337742E+01 -1.348696375E+01  6.526205810E+01  5.060000000E+00  0.00000E+00  1.000E+00
     -13     1     6     6     0     0  1.710360070E+01  1.248890197E+02  1.115720117E+02  1.683393162E+02  1.057000000E-01  0.00000E+00  1.000E+00
      14     1     6     6     0     0  3.361578049E+01  4.270532375E+00  4.480584579E+01  5.617670301E+01  0.000000000E+00  0.00000E+00 -1.000E+00
      15     1     8     8     0     0 -3.236526535E+01 -3.625000939E+01  3.283686392E+01  5.867700523E+01  1.777000000E+00  0.00000E+00 -1.000E+00
     -16     1     8     8     0     0  3.398361857E+01 -6.570809273E+01 -3.002690223E+00  7.403685521E+01  0.000000000E+00  0.00000E+00  1.000E+00
#rwgt            1           1   669.39789008932507               10       12863           0
<rwgt>
<wgt id='1001'>0.81104E+02</wgt>
<wgt id='1002'>0.98285E+02</wgt>
<wgt id='1003'>0.63102E+02</wgt>
<wgt id='1004'>0.72431E+02</wgt>
<wgt id='1005'>0.85158E+02</wgt>
<wgt id='1006'>0.59057E+02</wgt>
<wgt id='1007'>0.90790E+02</wgt>
<wgt id='1008'>0.11458E+03</wgt>
<wgt id='1009'>0.65928E+02</wgt>
<wgt id='2000'>0.81104E+02</wgt>
<wgt id='2001'>0.81219E+02</wgt>
<wgt id='2002'>0.80883E+02</wgt>
<wgt id='2003'>0.81035E+02</wgt>
<wgt id='2004'>0.81295E+02</wgt>
<wgt id='2005'>0.81220E+02</wgt>
<wgt id='2006'>0.81300E+02</wgt>
<wgt id='2007'>0.81361E+02</wgt>
<wgt id='2008'>0.81582E+02</wgt>
<wgt id='2009'>0.80972E+02</wgt>
<wgt id='2010'>0.81066E+02</wgt>
<wgt id='2011'>0.80667E+02</wgt>
<wgt id='2012'>0.81315E+02</wgt>
<wgt id='2013'>0.81195E+02</wgt>
<wgt id='2014'>0.81342E+02</wgt>
<wgt id='2015'>0.81275E+02</wgt>
<wgt id='2016'>0.81087E+02</wgt>
<wgt id='2017'>0.81053E+02</wgt>
<wgt id='2018'>0.81097E+02</wgt>
<wgt id='2019'>0.81445E+02</wgt>
<wgt id='2020'>0.80886E+02</wgt>
<wgt id='2021'>0.81088E+02</wgt>
<wgt id='2022'>0.81007E+02</wgt>
<wgt id='2023'>0.81096E+02</wgt>
<wgt id='2024'>0.81076E+02</wgt>
<wgt id='2025'>0.81036E+02</wgt>
<wgt id='2026'>0.81055E+02</wgt>
<wgt id='2027'>0.80840E+02</wgt>
<wgt id='2028'>0.81206E+02</wgt>
<wgt id='2029'>0.80809E+02</wgt>
<wgt id='2030'>0.81058E+02</wgt>
<wgt id='2031'>0.80850E+02</wgt>
<wgt id='2032'>0.81153E+02</wgt>
<wgt id='2033'>0.81017E+02</wgt>
<wgt id='2034'>0.80996E+02</wgt>
<wgt id='2035'>0.81102E+02</wgt>
<wgt id='2036'>0.81276E+02</wgt>
<wgt id='2037'>0.81100E+02</wgt>
<wgt id='2038'>0.81071E+02</wgt>
<wgt id='2039'>0.81135E+02</wgt>
<wgt id='2040'>0.81031E+02</wgt>
<wgt id='2041'>0.81115E+02</wgt>
<wgt id='2042'>0.81113E+02</wgt>
<wgt id='2043'>0.81070E+02</wgt>
<wgt id='2044'>0.81154E+02</wgt>
<wgt id='2045'>0.81140E+02</wgt>
<wgt id='2046'>0.81116E+02</wgt>
<wgt id='2047'>0.81080E+02</wgt>
<wgt id='2048'>0.81066E+02</wgt>
<wgt id='2049'>0.81043E+02</wgt>
<wgt id='2050'>0.81068E+02</wgt>
<wgt id='2051'>0.81097E+02</wgt>
<wgt id='2052'>0.81174E+02</wgt>
<wgt id='2053'>0.81091E+02</wgt>
<wgt id='2054'>0.81100E+02</wgt>
<wgt id='2055'>0.81115E+02</wgt>
<wgt id='2056'>0.81078E+02</wgt>
<wgt id='2057'>0.81131E+02</wgt>
<wgt id='2058'>0.81115E+02</wgt>
<wgt id='2059'>0.81120E+02</wgt>
<wgt id='2060'>0.81105E+02</wgt>
<wgt id='2061'>0.81097E+02</wgt>
<wgt id='2062'>0.81166E+02</wgt>
<wgt id='2063'>0.81123E+02</wgt>
<wgt id='2064'>0.81121E+02</wgt>
<wgt id='2065'>0.81168E+02</wgt>
<wgt id='2066'>0.81106E+02</wgt>
<wgt id='2067'>0.81128E+02</wgt>
<wgt id='2068'>0.81115E+02</wgt>
<wgt id='2069'>0.81113E+02</wgt>
<wgt id='2070'>0.81113E+02</wgt>
<wgt id='2071'>0.81107E+02</wgt>
<wgt id='2072'>0.81106E+02</wgt>
<wgt id='2073'>0.81119E+02</wgt>
<wgt id='2074'>0.81092E+02</wgt>
<wgt id='2075'>0.81090E+02</wgt>
<wgt id='2076'>0.81098E+02</wgt>
<wgt id='2077'>0.81145E+02</wgt>
<wgt id='2078'>0.81113E+02</wgt>
<wgt id='2079'>0.81085E+02</wgt>
<wgt id='2080'>0.81108E+02</wgt>
<wgt id='2081'>0.81094E+02</wgt>
<wgt id='2082'>0.81115E+02</wgt>
<wgt id='2083'>0.81130E+02</wgt>
<wgt id='2084'>0.81114E+02</wgt>
<wgt id='2085'>0.81103E+02</wgt>
<wgt id='2086'>0.81094E+02</wgt>
<wgt id='2087'>0.81113E+02</wgt>
<wgt id='2088'>0.81100E+02</wgt>
<wgt id='2089'>0.81098E+02</wgt>
<wgt id='2090'>0.81117E+02</wgt>
<wgt id='2091'>0.81104E+02</wgt>
<wgt id='2092'>0.81120E+02</wgt>
<wgt id='2093'>0.81092E+02</wgt>
<wgt id='2094'>0.81106E+02</wgt>
<wgt id='2095'>0.81114E+02</wgt>
<wgt id='2096'>0.81095E+02</wgt>
<wgt id='2097'>0.81112E+02</wgt>
<wgt id='2098'>0.81103E+02</wgt>
<wgt id='2099'>0.81115E+02</wgt>
<wgt id='2100'>0.81104E+02</wgt>
<wgt id='2101'>0.79019E+02</wgt>
<wgt id='2102'>0.83084E+02</wgt>
<wgt id='2200'>0.81151E+02</wgt>
<wgt id='2201'>0.71801E+02</wgt>
<wgt id='2202'>0.73513E+02</wgt>
<wgt id='2203'>0.75629E+02</wgt>
<wgt id='2204'>0.77581E+02</wgt>
<wgt id='2205'>0.80339E+02</wgt>
<wgt id='2206'>0.82269E+02</wgt>
<wgt id='2207'>0.84647E+02</wgt>
<wgt id='2208'>0.86538E+02</wgt>
<wgt id='2300'>0.84460E+02</wgt>
<wgt id='2301'>0.84589E+02</wgt>
<wgt id='2302'>0.84375E+02</wgt>
<wgt id='2303'>0.84587E+02</wgt>
<wgt id='2304'>0.84649E+02</wgt>
<wgt id='2305'>0.84724E+02</wgt>
<wgt id='2306'>0.84460E+02</wgt>
<wgt id='2307'>0.84724E+02</wgt>
<wgt id='2308'>0.84355E+02</wgt>
<wgt id='2309'>0.84695E+02</wgt>
<wgt id='2310'>0.84275E+02</wgt>
<wgt id='2311'>0.84367E+02</wgt>
<wgt id='2312'>0.84722E+02</wgt>
<wgt id='2313'>0.84335E+02</wgt>
<wgt id='2314'>0.84683E+02</wgt>
<wgt id='2315'>0.84410E+02</wgt>
<wgt id='2316'>0.84512E+02</wgt>
<wgt id='2317'>0.84682E+02</wgt>
<wgt id='2318'>0.84685E+02</wgt>
<wgt id='2319'>0.84181E+02</wgt>
<wgt id='2320'>0.84227E+02</wgt>
<wgt id='2321'>0.84136E+02</wgt>
<wgt id='2322'>0.84441E+02</wgt>
<wgt id='2323'>0.84271E+02</wgt>
<wgt id='2324'>0.84208E+02</wgt>
<wgt id='2325'>0.84490E+02</wgt>
<wgt id='2326'>0.84617E+02</wgt>
<wgt id='2327'>0.84486E+02</wgt>
<wgt id='2328'>0.84162E+02</wgt>
<wgt id='2329'>0.84327E+02</wgt>
<wgt id='2330'>0.84682E+02</wgt>
<wgt id='2331'>0.84567E+02</wgt>
<wgt id='2332'>0.84554E+02</wgt>
<wgt id='2333'>0.84609E+02</wgt>
<wgt id='2334'>0.84512E+02</wgt>
<wgt id='2335'>0.84639E+02</wgt>
<wgt id='2336'>0.84506E+02</wgt>
<wgt id='2337'>0.84449E+02</wgt>
<wgt id='2338'>0.84465E+02</wgt>
<wgt id='2339'>0.84433E+02</wgt>
<wgt id='2340'>0.84438E+02</wgt>
<wgt id='2341'>0.84504E+02</wgt>
<wgt id='2342'>0.84379E+02</wgt>
<wgt id='2343'>0.84380E+02</wgt>
<wgt id='2344'>0.84475E+02</wgt>
<wgt id='2345'>0.84517E+02</wgt>
<wgt id='2346'>0.84522E+02</wgt>
<wgt id='2347'>0.84463E+02</wgt>
<wgt id='2348'>0.84491E+02</wgt>
<wgt id='2349'>0.84447E+02</wgt>
<wgt id='2350'>0.84440E+02</wgt>
<wgt id='2351'>0.84537E+02</wgt>
<wgt id='2352'>0.84417E+02</wgt>
<wgt id='2353'>0.84429E+02</wgt>
<wgt id='2354'>0.84457E+02</wgt>
<wgt id='2355'>0.84384E+02</wgt>
<wgt id='2356'>0.84470E+02</wgt>
<wgt id='2357'>0.84434E+02</wgt>
<wgt id='2358'>0.84414E+02</wgt>
<wgt id='2359'>0.84458E+02</wgt>
<wgt id='2360'>0.84480E+02</wgt>
<wgt id='2361'>0.84460E+02</wgt>
<wgt id='2362'>0.84479E+02</wgt>
<wgt id='2363'>0.84497E+02</wgt>
<wgt id='2364'>0.84437E+02</wgt>
<wgt id='2365'>0.84451E+02</wgt>
<wgt id='2366'>0.84474E+02</wgt>
<wgt id='2367'>0.84428E+02</wgt>
<wgt id='2368'>0.84477E+02</wgt>
<wgt id='2369'>0.84453E+02</wgt>
<wgt id='2370'>0.84479E+02</wgt>
<wgt id='2371'>0.84450E+02</wgt>
<wgt id='2372'>0.84452E+02</wgt>
<wgt id='2373'>0.84420E+02</wgt>
<wgt id='2374'>0.84500E+02</wgt>
<wgt id='2375'>0.84447E+02</wgt>
<wgt id='2376'>0.84464E+02</wgt>
<wgt id='2377'>0.84481E+02</wgt>
<wgt id='2378'>0.84470E+02</wgt>
<wgt id='2379'>0.84457E+02</wgt>
<wgt id='2380'>0.84451E+02</wgt>
<wgt id='2381'>0.84461E+02</wgt>
<wgt id='2382'>0.84443E+02</wgt>
<wgt id='2383'>0.84470E+02</wgt>
<wgt id='2384'>0.84459E+02</wgt>
<wgt id='2385'>0.84463E+02</wgt>
<wgt id='2386'>0.84443E+02</wgt>
<wgt id='2387'>0.84451E+02</wgt>
<wgt id='2388'>0.84461E+02</wgt>
<wgt id='2389'>0.84461E+02</wgt>
<wgt id='2390'>0.84464E+02</wgt>
<wgt id='2391'>0.84463E+02</wgt>
<wgt id='2392'>0.84469E+02</wgt>
<wgt id='2393'>0.84462E+02</wgt>
<wgt id='2394'>0.84474E+02</wgt>
<wgt id='2395'>0.84461E+02</wgt>
<wgt id='2396'>0.84455E+02</wgt>
<wgt id='2397'>0.84448E+02</wgt>
<wgt id='2398'>0.84460E+02</wgt>
<wgt id='2399'>0.84469E+02</wgt>
<wgt id='2400'>0.84462E+02</wgt>
<wgt id='2401'>0.82392E+02</wgt>
<wgt id='2402'>0.86577E+02</wgt>
<wgt id='2500'>0.80838E+02</wgt>
<wgt id='2501'>0.85132E+02</wgt>
<wgt id='2600'>0.78721E+02</wgt>
<wgt id='2601'>0.78696E+02</wgt>
<wgt id='2602'>0.78698E+02</wgt>
<wgt id='2603'>0.78680E+02</wgt>
<wgt id='2604'>0.78843E+02</wgt>
<wgt id='2605'>0.78602E+02</wgt>
<wgt id='2606'>0.78490E+02</wgt>
<wgt id='2607'>0.78903E+02</wgt>
<wgt id='2608'>0.78612E+02</wgt>
<wgt id='2609'>0.78673E+02</wgt>
<wgt id='2610'>0.78679E+02</wgt>
<wgt id='2611'>0.78651E+02</wgt>
<wgt id='2612'>0.79054E+02</wgt>
<wgt id='2613'>0.78692E+02</wgt>
<wgt id='2614'>0.78712E+02</wgt>
<wgt id='2615'>0.78618E+02</wgt>
<wgt id='2616'>0.78696E+02</wgt>
<wgt id='2617'>0.78622E+02</wgt>
<wgt id='2618'>0.78554E+02</wgt>
<wgt id='2619'>0.78759E+02</wgt>
<wgt id='2620'>0.78753E+02</wgt>
<wgt id='2621'>0.78694E+02</wgt>
<wgt id='2622'>0.78757E+02</wgt>
<wgt id='2623'>0.78719E+02</wgt>
<wgt id='2624'>0.78729E+02</wgt>
<wgt id='2625'>0.78675E+02</wgt>
<wgt id='2626'>0.78714E+02</wgt>
<wgt id='2627'>0.78691E+02</wgt>
<wgt id='2628'>0.78732E+02</wgt>
<wgt id='2629'>0.78719E+02</wgt>
<wgt id='2630'>0.78708E+02</wgt>
<wgt id='2631'>0.78725E+02</wgt>
<wgt id='2632'>0.78723E+02</wgt>
<wgt id='2633'>0.78722E+02</wgt>
<wgt id='2634'>0.78733E+02</wgt>
<wgt id='2635'>0.78714E+02</wgt>
<wgt id='2636'>0.78715E+02</wgt>
<wgt id='2637'>0.78717E+02</wgt>
<wgt id='2638'>0.78723E+02</wgt>
<wgt id='2639'>0.78721E+02</wgt>
<wgt id='2640'>0.78725E+02</wgt>
<wgt id='2641'>0.78719E+02</wgt>
<wgt id='2642'>0.78721E+02</wgt>
<wgt id='2643'>0.78726E+02</wgt>
<wgt id='2644'>0.78719E+02</wgt>
<wgt id='2645'>0.78719E+02</wgt>
<wgt id='2646'>0.78711E+02</wgt>
<wgt id='2647'>0.78725E+02</wgt>
<wgt id='2648'>0.78723E+02</wgt>
<wgt id='2649'>0.78724E+02</wgt>
<wgt id='2650'>0.78721E+02</wgt>
<wgt id='2651'>0.77413E+02</wgt>
<wgt id='2652'>0.79944E+02</wgt>
<wgt id='2700'>0.76146E+02</wgt>
<wgt id='2701'>0.77413E+02</wgt>
<wgt id='2702'>0.78107E+02</wgt>
<wgt id='2703'>0.79247E+02</wgt>
<wgt id='2704'>0.79944E+02</wgt>
<wgt id='2705'>0.81083E+02</wgt>
<wgt id='2800'>0.79845E+02</wgt>
<wgt id='4000'>0.79276E+02</wgt>
<wgt id='4001'>0.79614E+02</wgt>
<wgt id='4002'>0.79108E+02</wgt>
<wgt id='4003'>0.79939E+02</wgt>
<wgt id='4004'>0.78421E+02</wgt>
<wgt id='4005'>0.78786E+02</wgt>
<wgt id='4006'>0.79648E+02</wgt>
<wgt id='4007'>0.80299E+02</wgt>
<wgt id='4008'>0.78246E+02</wgt>
<wgt id='4009'>0.79851E+02</wgt>
<wgt id='4010'>0.78848E+02</wgt>
<wgt id='4011'>0.79507E+02</wgt>
<wgt id='4012'>0.79037E+02</wgt>
<wgt id='4013'>0.79783E+02</wgt>
<wgt id='4014'>0.78798E+02</wgt>
<wgt id='4015'>0.79001E+02</wgt>
<wgt id='4016'>0.79186E+02</wgt>
<wgt id='4017'>0.79165E+02</wgt>
<wgt id='4018'>0.79423E+02</wgt>
<wgt id='4019'>0.79851E+02</wgt>
<wgt id='4020'>0.78342E+02</wgt>
<wgt id='4021'>0.79289E+02</wgt>
<wgt id='4022'>0.79220E+02</wgt>
<wgt id='4023'>0.78814E+02</wgt>
<wgt id='4024'>0.79615E+02</wgt>
<wgt id='4025'>0.79553E+02</wgt>
<wgt id='4026'>0.78544E+02</wgt>
<wgt id='4027'>0.79011E+02</wgt>
<wgt id='4028'>0.79488E+02</wgt>
<wgt id='4029'>0.78192E+02</wgt>
<wgt id='4030'>0.79665E+02</wgt>
<wgt id='4031'>0.79268E+02</wgt>
<wgt id='4032'>0.78601E+02</wgt>
<wgt id='4033'>0.78965E+02</wgt>
<wgt id='4034'>0.79392E+02</wgt>
<wgt id='4035'>0.80101E+02</wgt>
<wgt id='4036'>0.78582E+02</wgt>
<wgt id='4037'>0.80176E+02</wgt>
<wgt id='4038'>0.78447E+02</wgt>
<wgt id='4039'>0.80371E+02</wgt>
<wgt id='4040'>0.78082E+02</wgt>
<wgt id='4041'>0.79086E+02</wgt>
<wgt id='4042'>0.79373E+02</wgt>
<wgt id='4043'>0.78214E+02</wgt>
<wgt id='4044'>0.79804E+02</wgt>
<wgt id='4045'>0.81179E+02</wgt>
<wgt id='4046'>0.78353E+02</wgt>
<wgt id='4047'>0.78064E+02</wgt>
<wgt id='4048'>0.79693E+02</wgt>
<wgt id='4049'>0.79047E+02</wgt>
<wgt id='4050'>0.79398E+02</wgt>
<wgt id='4051'>0.80516E+02</wgt>
<wgt id='4052'>0.78057E+02</wgt>
<wgt id='4053'>0.80191E+02</wgt>
<wgt id='4054'>0.78126E+02</wgt>
<wgt id='4055'>0.79621E+02</wgt>
<wgt id='4056'>0.78804E+02</wgt>
<wgt id='4057'>0.78509E+02</wgt>
<wgt id='4058'>0.79800E+02</wgt>
<wgt id='4100'>0.80155E+02</wgt>
<wgt id='4101'>0.79743E+02</wgt>
<wgt id='4102'>0.78766E+02</wgt>
<wgt id='4103'>0.78226E+02</wgt>
<wgt id='4200'>0.76153E+02</wgt>
<wgt id='4201'>0.76285E+02</wgt>
<wgt id='4202'>0.76201E+02</wgt>
<wgt id='4203'>0.75575E+02</wgt>
<wgt id='4204'>0.76638E+02</wgt>
<wgt id='4205'>0.76130E+02</wgt>
<wgt id='4206'>0.76227E+02</wgt>
<wgt id='4207'>0.75876E+02</wgt>
<wgt id='4208'>0.76364E+02</wgt>
<wgt id='4209'>0.76291E+02</wgt>
<wgt id='4210'>0.76146E+02</wgt>
<wgt id='4211'>0.77126E+02</wgt>
<wgt id='4212'>0.75371E+02</wgt>
<wgt id='4213'>0.76270E+02</wgt>
<wgt id='4214'>0.75959E+02</wgt>
<wgt id='4215'>0.76313E+02</wgt>
<wgt id='4216'>0.75639E+02</wgt>
<wgt id='4217'>0.75768E+02</wgt>
<wgt id='4218'>0.76442E+02</wgt>
<wgt id='4219'>0.75094E+02</wgt>
<wgt id='4220'>0.77073E+02</wgt>
<wgt id='4221'>0.75560E+02</wgt>
<wgt id='4222'>0.76759E+02</wgt>
<wgt id='4223'>0.76905E+02</wgt>
<wgt id='4224'>0.75430E+02</wgt>
<wgt id='4225'>0.74620E+02</wgt>
<wgt id='4226'>0.77470E+02</wgt>
<wgt id='4227'>0.76539E+02</wgt>
<wgt id='4228'>0.75814E+02</wgt>
<wgt id='4229'>0.75807E+02</wgt>
<wgt id='4230'>0.76336E+02</wgt>
<wgt id='4231'>0.76046E+02</wgt>
<wgt id='4232'>0.76246E+02</wgt>
<wgt id='4233'>0.76415E+02</wgt>
<wgt id='4234'>0.75805E+02</wgt>
<wgt id='4235'>0.76467E+02</wgt>
<wgt id='4236'>0.75874E+02</wgt>
<wgt id='4237'>0.76079E+02</wgt>
<wgt id='4238'>0.76120E+02</wgt>
<wgt id='4239'>0.77110E+02</wgt>
<wgt id='4240'>0.74577E+02</wgt>
<wgt id='4241'>0.75647E+02</wgt>
<wgt id='4242'>0.76701E+02</wgt>
<wgt id='4243'>0.76126E+02</wgt>
<wgt id='4244'>0.76282E+02</wgt>
<wgt id='4245'>0.75206E+02</wgt>
<wgt id='4246'>0.77121E+02</wgt>
<wgt id='4247'>0.75892E+02</wgt>
<wgt id='4248'>0.76296E+02</wgt>
<wgt id='4249'>0.77192E+02</wgt>
<wgt id='4250'>0.74896E+02</wgt>
<wgt id='4251'>0.74989E+02</wgt>
<wgt id='4252'>0.76802E+02</wgt>
<wgt id='4253'>0.75655E+02</wgt>
<wgt id='4254'>0.76528E+02</wgt>
<wgt id='4255'>0.76159E+02</wgt>
<wgt id='4256'>0.76006E+02</wgt>
<wgt id='4257'>0.74725E+02</wgt>
<wgt id='4258'>0.76568E+02</wgt>
<wgt id='4300'>0.78491E+02</wgt>
<wgt id='4301'>0.77477E+02</wgt>
<wgt id='5000'>0.78932E+02</wgt>
<wgt id='5001'>0.78963E+02</wgt>
<wgt id='5002'>0.78893E+02</wgt>
<wgt id='5003'>0.78951E+02</wgt>
<wgt id='5004'>0.78915E+02</wgt>
<wgt id='5005'>0.78928E+02</wgt>
<wgt id='5006'>0.78939E+02</wgt>
<wgt id='5007'>0.78982E+02</wgt>
<wgt id='5008'>0.78892E+02</wgt>
<wgt id='5009'>0.79034E+02</wgt>
<wgt id='5010'>0.78827E+02</wgt>
<wgt id='5011'>0.79088E+02</wgt>
<wgt id='5012'>0.78783E+02</wgt>
<wgt id='5013'>0.79038E+02</wgt>
<wgt id='5014'>0.78857E+02</wgt>
<wgt id='5015'>0.78547E+02</wgt>
<wgt id='5016'>0.78547E+02</wgt>
<wgt id='5017'>0.79390E+02</wgt>
<wgt id='5018'>0.78623E+02</wgt>
<wgt id='5019'>0.79252E+02</wgt>
<wgt id='5020'>0.78495E+02</wgt>
<wgt id='5021'>0.79031E+02</wgt>
<wgt id='5022'>0.78777E+02</wgt>
<wgt id='5023'>0.78827E+02</wgt>
<wgt id='5024'>0.79183E+02</wgt>
<wgt id='5025'>0.78597E+02</wgt>
<wgt id='5026'>0.79310E+02</wgt>
<wgt id='5027'>0.78961E+02</wgt>
<wgt id='5028'>0.78855E+02</wgt>
<wgt id='5029'>0.79472E+02</wgt>
<wgt id='5030'>0.78625E+02</wgt>
<wgt id='5031'>0.78684E+02</wgt>
<wgt id='5032'>0.79676E+02</wgt>
<wgt id='5033'>0.78949E+02</wgt>
<wgt id='5034'>0.78915E+02</wgt>
<wgt id='5035'>0.78932E+02</wgt>
<wgt id='5036'>0.78934E+02</wgt>
<wgt id='5037'>0.78863E+02</wgt>
<wgt id='5038'>0.78972E+02</wgt>
<wgt id='5039'>0.79143E+02</wgt>
<wgt id='5040'>0.78415E+02</wgt>
<wgt id='5041'>0.79280E+02</wgt>
<wgt id='5042'>0.78586E+02</wgt>
<wgt id='5043'>0.79009E+02</wgt>
<wgt id='5044'>0.78912E+02</wgt>
<wgt id='5045'>0.78775E+02</wgt>
<wgt id='5046'>0.79104E+02</wgt>
<wgt id='5047'>0.78960E+02</wgt>
<wgt id='5048'>0.78811E+02</wgt>
<wgt id='5049'>0.78906E+02</wgt>
<wgt id='5050'>0.78981E+02</wgt>
<wgt id='5051'>0.79048E+02</wgt>
<wgt id='5052'>0.78817E+02</wgt>
<wgt id='5053'>0.78749E+02</wgt>
<wgt id='5054'>0.79057E+02</wgt>
<wgt id='5055'>0.79003E+02</wgt>
<wgt id='5056'>0.78945E+02</wgt>
<wgt id='5057'>0.78706E+02</wgt>
<wgt id='5058'>0.79090E+02</wgt>
<wgt id='5059'>0.78926E+02</wgt>
<wgt id='5060'>0.78947E+02</wgt>
<wgt id='5061'>0.79135E+02</wgt>
<wgt id='5062'>0.78933E+02</wgt>
<wgt id='5063'>0.79187E+02</wgt>
<wgt id='5064'>0.78874E+02</wgt>
<wgt id='5100'>0.78932E+02</wgt>
<wgt id='5101'>0.78966E+02</wgt>
<wgt id='6000'>0.79232E+02</wgt>
<wgt id='6001'>0.79411E+02</wgt>
<wgt id='6002'>0.79419E+02</wgt>
<wgt id='6003'>0.79216E+02</wgt>
<wgt id='6004'>0.79144E+02</wgt>
<wgt id='6005'>0.79156E+02</wgt>
<wgt id='6006'>0.79499E+02</wgt>
<wgt id='6007'>0.79143E+02</wgt>
<wgt id='6008'>0.78301E+02</wgt>
<wgt id='6009'>0.79524E+02</wgt>
<wgt id='6010'>0.78174E+02</wgt>
<wgt id='6011'>0.79200E+02</wgt>
<wgt id='6012'>0.79483E+02</wgt>
<wgt id='6013'>0.79028E+02</wgt>
<wgt id='6014'>0.79191E+02</wgt>
<wgt id='6015'>0.78761E+02</wgt>
<wgt id='6016'>0.79266E+02</wgt>
<wgt id='6017'>0.79269E+02</wgt>
<wgt id='6018'>0.79138E+02</wgt>
<wgt id='6019'>0.79267E+02</wgt>
<wgt id='6020'>0.79398E+02</wgt>
<wgt id='6021'>0.79311E+02</wgt>
<wgt id='6022'>0.79220E+02</wgt>
<wgt id='6023'>0.79266E+02</wgt>
<wgt id='6024'>0.79297E+02</wgt>
<wgt id='6025'>0.79440E+02</wgt>
<wgt id='6026'>0.79281E+02</wgt>
<wgt id='6027'>0.79260E+02</wgt>
<wgt id='6028'>0.79121E+02</wgt>
<wgt id='6029'>0.79124E+02</wgt>
<wgt id='6030'>0.79891E+02</wgt>
<wgt id='6031'>0.79088E+02</wgt>
<wgt id='6032'>0.79267E+02</wgt>
<wgt id='6033'>0.79125E+02</wgt>
<wgt id='6034'>0.79417E+02</wgt>
<wgt id='6035'>0.79276E+02</wgt>
<wgt id='6036'>0.79609E+02</wgt>
<wgt id='6037'>0.79248E+02</wgt>
<wgt id='6038'>0.79294E+02</wgt>
<wgt id='6039'>0.79329E+02</wgt>
<wgt id='6040'>0.79227E+02</wgt>
<wgt id='6041'>0.78236E+02</wgt>
<wgt id='6042'>0.79897E+02</wgt>
<wgt id='7000'>0.78851E+02</wgt>
<wgt id='7001'>0.78379E+02</wgt>
<wgt id='7002'>0.78541E+02</wgt>
<wgt id='7003'>0.78453E+02</wgt>
<wgt id='7004'>0.78467E+02</wgt>
<wgt id='7005'>0.78586E+02</wgt>
<wgt id='7006'>0.78335E+02</wgt>
<wgt id='7007'>0.78943E+02</wgt>
<wgt id='7008'>0.77992E+02</wgt>
<wgt id='7009'>0.78200E+02</wgt>
<wgt id='7010'>0.78731E+02</wgt>
<wgt id='7011'>0.78723E+02</wgt>
<wgt id='7012'>0.78200E+02</wgt>
<wgt id='7013'>0.78305E+02</wgt>
<wgt id='7014'>0.78608E+02</wgt>
<wgt id='7015'>0.78330E+02</wgt>
<wgt id='7016'>0.78376E+02</wgt>
<wgt id='7017'>0.78487E+02</wgt>
<wgt id='7018'>0.78434E+02</wgt>
<wgt id='7019'>0.78284E+02</wgt>
<wgt id='7020'>0.78644E+02</wgt>
<wgt id='7021'>0.78334E+02</wgt>
<wgt id='7022'>0.78552E+02</wgt>
<wgt id='7023'>0.78276E+02</wgt>
<wgt id='7024'>0.78654E+02</wgt>
<wgt id='7025'>0.77734E+02</wgt>
<wgt id='7026'>0.79091E+02</wgt>
<wgt id='7027'>0.78203E+02</wgt>
<wgt id='7028'>0.78775E+02</wgt>
<wgt id='8000'>0.79469E+02</wgt>
<wgt id='8001'>0.79458E+02</wgt>
<wgt id='8002'>0.79493E+02</wgt>
<wgt id='8003'>0.79472E+02</wgt>
<wgt id='8004'>0.79467E+02</wgt>
<wgt id='8005'>0.79314E+02</wgt>
<wgt id='8006'>0.79524E+02</wgt>
<wgt id='8007'>0.79577E+02</wgt>
<wgt id='8008'>0.79644E+02</wgt>
<wgt id='8009'>0.79800E+02</wgt>
<wgt id='8010'>0.79396E+02</wgt>
<wgt id='8011'>0.79470E+02</wgt>
<wgt id='8012'>0.79206E+02</wgt>
<wgt id='8013'>0.79341E+02</wgt>
<wgt id='8014'>0.79612E+02</wgt>
<wgt id='8015'>0.79423E+02</wgt>
<wgt id='8016'>0.79528E+02</wgt>
<wgt id='8017'>0.79504E+02</wgt>
<wgt id='8018'>0.79613E+02</wgt>
<wgt id='8019'>0.79575E+02</wgt>
<wgt id='8020'>0.79328E+02</wgt>
<wgt id='8021'>0.79429E+02</wgt>
<wgt id='8022'>0.79205E+02</wgt>
<wgt id='8023'>0.79454E+02</wgt>
<wgt id='8024'>0.79366E+02</wgt>
<wgt id='8025'>0.79558E+02</wgt>
<wgt id='8026'>0.79605E+02</wgt>
<wgt id='8027'>0.79460E+02</wgt>
<wgt id='8028'>0.79536E+02</wgt>
<wgt id='8029'>0.79110E+02</wgt>
<wgt id='3000'>0.81104E+02</wgt>
<wgt id='3001'>0.80523E+02</wgt>
<wgt id='3002'>0.80276E+02</wgt>
<wgt id='3003'>0.82705E+02</wgt>
<wgt id='3004'>0.81858E+02</wgt>
<wgt id='3005'>0.80840E+02</wgt>
<wgt id='3006'>0.83415E+02</wgt>
<wgt id='3007'>0.80584E+02</wgt>
<wgt id='3008'>0.80174E+02</wgt>
<wgt id='3009'>0.82265E+02</wgt>
<wgt id='3010'>0.82780E+02</wgt>
<wgt id='3011'>0.82589E+02</wgt>
<wgt id='3012'>0.81174E+02</wgt>
<wgt id='3013'>0.80381E+02</wgt>
<wgt id='3014'>0.80136E+02</wgt>
<wgt id='3015'>0.81874E+02</wgt>
<wgt id='3016'>0.82476E+02</wgt>
<wgt id='3017'>0.82745E+02</wgt>
<wgt id='3018'>0.80828E+02</wgt>
<wgt id='3019'>0.79700E+02</wgt>
<wgt id='3020'>0.80832E+02</wgt>
<wgt id='3021'>0.79548E+02</wgt>
<wgt id='3022'>0.79475E+02</wgt>
<wgt id='3023'>0.79672E+02</wgt>
<wgt id='3024'>0.79619E+02</wgt>
<wgt id='3025'>0.79757E+02</wgt>
<wgt id='3026'>0.80841E+02</wgt>
<wgt id='3027'>0.79971E+02</wgt>
<wgt id='3028'>0.80432E+02</wgt>
<wgt id='3029'>0.82455E+02</wgt>
<wgt id='3030'>0.82964E+02</wgt>
<wgt id='3031'>0.81848E+02</wgt>
<wgt id='3032'>0.82361E+02</wgt>
<wgt id='3033'>0.80245E+02</wgt>
<wgt id='3034'>0.80678E+02</wgt>
<wgt id='3035'>0.82536E+02</wgt>
<wgt id='3036'>0.81005E+02</wgt>
<wgt id='3037'>0.81121E+02</wgt>
<wgt id='3038'>0.80694E+02</wgt>
<wgt id='3039'>0.81629E+02</wgt>
<wgt id='3040'>0.80883E+02</wgt>
<wgt id='3041'>0.81523E+02</wgt>
<wgt id='3042'>0.80214E+02</wgt>
<wgt id='3043'>0.80994E+02</wgt>
<wgt id='3044'>0.80485E+02</wgt>
<wgt id='3045'>0.81254E+02</wgt>
<wgt id='3046'>0.81696E+02</wgt>
<wgt id='3047'>0.78912E+02</wgt>
<wgt id='3048'>0.79142E+02</wgt>
<wgt id='3049'>0.81994E+02</wgt>
<wgt id='3050'>0.82513E+02</wgt>
<wgt id='3051'>0.81271E+02</wgt>
<wgt id='3052'>0.80095E+02</wgt>
<wgt id='3053'>0.80791E+02</wgt>
<wgt id='3054'>0.81243E+02</wgt>
<wgt id='3055'>0.79342E+02</wgt>
<wgt id='3056'>0.80607E+02</wgt>
<wgt id='3057'>0.80582E+02</wgt>
<wgt id='3058'>0.79461E+02</wgt>
<wgt id='3059'>0.83107E+02</wgt>
<wgt id='3060'>0.81420E+02</wgt>
<wgt id='3061'>0.81062E+02</wgt>
<wgt id='3062'>0.80772E+02</wgt>
<wgt id='3063'>0.79136E+02</wgt>
<wgt id='3064'>0.80557E+02</wgt>
<wgt id='3065'>0.80470E+02</wgt>
<wgt id='3066'>0.81329E+02</wgt>
<wgt id='3067'>0.79314E+02</wgt>
<wgt id='3068'>0.82084E+02</wgt>
<wgt id='3069'>0.80549E+02</wgt>
<wgt id='3070'>0.79479E+02</wgt>
<wgt id='3071'>0.82773E+02</wgt>
<wgt id='3072'>0.81600E+02</wgt>
<wgt id='3073'>0.82169E+02</wgt>
<wgt id='3074'>0.82634E+02</wgt>
<wgt id='3075'>0.82506E+02</wgt>
<wgt id='3076'>0.82916E+02</wgt>
<wgt id='3077'>0.80066E+02</wgt>
<wgt id='3078'>0.82091E+02</wgt>
<wgt id='3079'>0.81117E+02</wgt>
<wgt id='3080'>0.80745E+02</wgt>
<wgt id='3081'>0.79182E+02</wgt>
<wgt id='3082'>0.82476E+02</wgt>
<wgt id='3083'>0.81070E+02</wgt>
<wgt id='3084'>0.81204E+02</wgt>
<wgt id='3085'>0.82618E+02</wgt>
<wgt id='3086'>0.79159E+02</wgt>
<wgt id='3087'>0.82055E+02</wgt>
<wgt id='3088'>0.82282E+02</wgt>
<wgt id='3089'>0.83969E+02</wgt>
<wgt id='3090'>0.80711E+02</wgt>
<wgt id='3091'>0.80270E+02</wgt>
<wgt id='3092'>0.82610E+02</wgt>
<wgt id='3093'>0.81935E+02</wgt>
<wgt id='3094'>0.80923E+02</wgt>
<wgt id='3095'>0.80844E+02</wgt>
<wgt id='3096'>0.80360E+02</wgt>
<wgt id='3097'>0.79903E+02</wgt>
<wgt id='3098'>0.81939E+02</wgt>
<wgt id='3099'>0.80398E+02</wgt>
<wgt id='3100'>0.80749E+02</wgt>
<wgt id='3200'>0.78721E+02</wgt>
<wgt id='3201'>0.79102E+02</wgt>
<wgt id='3202'>0.77889E+02</wgt>
<wgt id='3203'>0.78528E+02</wgt>
<wgt id='3204'>0.78180E+02</wgt>
<wgt id='3205'>0.79310E+02</wgt>
<wgt id='3206'>0.79061E+02</wgt>
<wgt id='3207'>0.79359E+02</wgt>
<wgt id='3208'>0.79176E+02</wgt>
<wgt id='3209'>0.78567E+02</wgt>
<wgt id='3210'>0.78664E+02</wgt>
<wgt id='3211'>0.79714E+02</wgt>
<wgt id='3212'>0.77814E+02</wgt>
<wgt id='3213'>0.78258E+02</wgt>
<wgt id='3214'>0.77828E+02</wgt>
<wgt id='3215'>0.78716E+02</wgt>
<wgt id='3216'>0.79159E+02</wgt>
<wgt id='3217'>0.79054E+02</wgt>
<wgt id='3218'>0.78766E+02</wgt>
<wgt id='3219'>0.78837E+02</wgt>
<wgt id='3220'>0.78005E+02</wgt>
<wgt id='3221'>0.79465E+02</wgt>
<wgt id='3222'>0.79486E+02</wgt>
<wgt id='3223'>0.78656E+02</wgt>
<wgt id='3224'>0.78385E+02</wgt>
<wgt id='3225'>0.79198E+02</wgt>
<wgt id='3226'>0.78788E+02</wgt>
<wgt id='3227'>0.78018E+02</wgt>
<wgt id='3228'>0.78084E+02</wgt>
<wgt id='3229'>0.79122E+02</wgt>
<wgt id='3230'>0.79265E+02</wgt>
<wgt id='3231'>0.78980E+02</wgt>
<wgt id='3232'>0.79147E+02</wgt>
<wgt id='3233'>0.79006E+02</wgt>
<wgt id='3234'>0.78942E+02</wgt>
<wgt id='3235'>0.78175E+02</wgt>
<wgt id='3236'>0.78024E+02</wgt>
<wgt id='3237'>0.78401E+02</wgt>
<wgt id='3238'>0.78654E+02</wgt>
<wgt id='3239'>0.78350E+02</wgt>
<wgt id='3240'>0.78859E+02</wgt>
<wgt id='3241'>0.79415E+02</wgt>
<wgt id='3242'>0.77976E+02</wgt>
<wgt id='3243'>0.77873E+02</wgt>
<wgt id='3244'>0.78440E+02</wgt>
<wgt id='3245'>0.79239E+02</wgt>
<wgt id='3246'>0.78229E+02</wgt>
<wgt id='3247'>0.78554E+02</wgt>
<wgt id='3248'>0.78372E+02</wgt>
<wgt id='3249'>0.78567E+02</wgt>
<wgt id='3250'>0.79208E+02</wgt>
<wgt id='3251'>0.78763E+02</wgt>
<wgt id='3252'>0.78770E+02</wgt>
<wgt id='3253'>0.78762E+02</wgt>
<wgt id='3254'>0.78753E+02</wgt>
<wgt id='3255'>0.78686E+02</wgt>
<wgt id='3256'>0.77952E+02</wgt>
<wgt id='3257'>0.78589E+02</wgt>
<wgt id='3258'>0.79167E+02</wgt>
<wgt id='3259'>0.78848E+02</wgt>
<wgt id='3260'>0.78653E+02</wgt>
<wgt id='3261'>0.79087E+02</wgt>
<wgt id='3262'>0.78269E+02</wgt>
<wgt id='3263'>0.78883E+02</wgt>
<wgt id='3264'>0.79091E+02</wgt>
<wgt id='3265'>0.79261E+02</wgt>
<wgt id='3266'>0.78401E+02</wgt>
<wgt id='3267'>0.78630E+02</wgt>
<wgt id='3268'>0.79618E+02</wgt>
<wgt id='3269'>0.78867E+02</wgt>
<wgt id='3270'>0.78916E+02</wgt>
<wgt id='3271'>0.78885E+02</wgt>
<wgt id='3272'>0.79223E+02</wgt>
<wgt id='3273'>0.78780E+02</wgt>
<wgt id='3274'>0.79100E+02</wgt>
<wgt id='3275'>0.78847E+02</wgt>
<wgt id='3276'>0.78615E+02</wgt>
<wgt id='3277'>0.78166E+02</wgt>
<wgt id='3278'>0.78613E+02</wgt>
<wgt id='3279'>0.79287E+02</wgt>
<wgt id='3280'>0.78492E+02</wgt>
<wgt id='3281'>0.78872E+02</wgt>
<wgt id='3282'>0.79099E+02</wgt>
<wgt id='3283'>0.78887E+02</wgt>
<wgt id='3284'>0.78719E+02</wgt>
<wgt id='3285'>0.78055E+02</wgt>
<wgt id='3286'>0.78745E+02</wgt>
<wgt id='3287'>0.78234E+02</wgt>
<wgt id='3288'>0.79262E+02</wgt>
<wgt id='3289'>0.80060E+02</wgt>
<wgt id='3290'>0.79791E+02</wgt>
<wgt id='3291'>0.77482E+02</wgt>
<wgt id='3292'>0.77596E+02</wgt>
<wgt id='3293'>0.78326E+02</wgt>
<wgt id='3294'>0.77475E+02</wgt>
<wgt id='3295'>0.78097E+02</wgt>
<wgt id='3296'>0.79884E+02</wgt>
<wgt id='3297'>0.78559E+02</wgt>
<wgt id='3298'>0.78837E+02</wgt>
<wgt id='3299'>0.78205E+02</wgt>
<wgt id='3300'>0.79110E+02</wgt>
<wgt id='3301'>0.77413E+02</wgt>
<wgt id='3302'>0.79944E+02</wgt>
<wgt id='3400'>0.78725E+02</wgt>
<wgt id='3401'>0.78720E+02</wgt>
<wgt id='3402'>0.78415E+02</wgt>
<wgt id='3403'>0.79679E+02</wgt>
<wgt id='3404'>0.80025E+02</wgt>
<wgt id='3405'>0.79411E+02</wgt>
<wgt id='3406'>0.78828E+02</wgt>
<wgt id='3407'>0.78259E+02</wgt>
<wgt id='3408'>0.80328E+02</wgt>
<wgt id='3409'>0.79719E+02</wgt>
<wgt id='3410'>0.78569E+02</wgt>
<wgt id='3411'>0.79324E+02</wgt>
<wgt id='3412'>0.79531E+02</wgt>
<wgt id='3413'>0.78616E+02</wgt>
<wgt id='3414'>0.78466E+02</wgt>
<wgt id='3415'>0.78726E+02</wgt>
<wgt id='3416'>0.78186E+02</wgt>
<wgt id='3417'>0.79009E+02</wgt>
<wgt id='3418'>0.78203E+02</wgt>
<wgt id='3419'>0.78357E+02</wgt>
<wgt id='3420'>0.79175E+02</wgt>
<wgt id='3421'>0.79041E+02</wgt>
<wgt id='3422'>0.79557E+02</wgt>
<wgt id='3423'>0.79257E+02</wgt>
<wgt id='3424'>0.79060E+02</wgt>
<wgt id='3425'>0.78419E+02</wgt>
<wgt id='3426'>0.79187E+02</wgt>
<wgt id='3427'>0.78762E+02</wgt>
<wgt id='3428'>0.79766E+02</wgt>
<wgt id='3429'>0.78122E+02</wgt>
<wgt id='3430'>0.79265E+02</wgt>
<wgt id='3431'>0.78869E+02</wgt>
<wgt id='3432'>0.78715E+02</wgt>
<wgt id='3433'>0.77313E+02</wgt>
<wgt id='3434'>0.78597E+02</wgt>
<wgt id='3435'>0.78701E+02</wgt>
<wgt id='3436'>0.78860E+02</wgt>
<wgt id='3437'>0.78797E+02</wgt>
<wgt id='3438'>0.77983E+02</wgt>
<wgt id='3439'>0.79323E+02</wgt>
<wgt id='3440'>0.78765E+02</wgt>
<wgt id='3441'>0.78617E+02</wgt>
<wgt id='3442'>0.77145E+02</wgt>
<wgt id='3443'>0.78511E+02</wgt>
<wgt id='3444'>0.78474E+02</wgt>
<wgt id='3445'>0.78334E+02</wgt>
<wgt id='3446'>0.79213E+02</wgt>
<wgt id='3447'>0.80252E+02</wgt>
<wgt id='3448'>0.79329E+02</wgt>
<wgt id='3449'>0.79286E+02</wgt>
<wgt id='3450'>0.78628E+02</wgt>
<wgt id='3451'>0.79891E+02</wgt>
<wgt id='3452'>0.78324E+02</wgt>
<wgt id='3453'>0.78209E+02</wgt>
<wgt id='3454'>0.77764E+02</wgt>
<wgt id='3455'>0.79741E+02</wgt>
<wgt id='3456'>0.79099E+02</wgt>
<wgt id='3457'>0.79496E+02</wgt>
<wgt id='3458'>0.78836E+02</wgt>
<wgt id='3459'>0.78430E+02</wgt>
<wgt id='3460'>0.78413E+02</wgt>
<wgt id='3461'>0.78130E+02</wgt>
<wgt id='3462'>0.78111E+02</wgt>
<wgt id='3463'>0.77842E+02</wgt>
<wgt id='3464'>0.79253E+02</wgt>
<wgt id='3465'>0.78400E+02</wgt>
<wgt id='3466'>0.78980E+02</wgt>
<wgt id='3467'>0.78516E+02</wgt>
<wgt id='3468'>0.77567E+02</wgt>
<wgt id='3469'>0.78838E+02</wgt>
<wgt id='3470'>0.78856E+02</wgt>
<wgt id='3471'>0.78698E+02</wgt>
<wgt id='3472'>0.78173E+02</wgt>
<wgt id='3473'>0.78961E+02</wgt>
<wgt id='3474'>0.78593E+02</wgt>
<wgt id='3475'>0.78496E+02</wgt>
<wgt id='3476'>0.79041E+02</wgt>
<wgt id='3477'>0.77880E+02</wgt>
<wgt id='3478'>0.78946E+02</wgt>
<wgt id='3479'>0.79783E+02</wgt>
<wgt id='3480'>0.78169E+02</wgt>
<wgt id='3481'>0.78994E+02</wgt>
<wgt id='3482'>0.78206E+02</wgt>
<wgt id='3483'>0.77295E+02</wgt>
<wgt id='3484'>0.78516E+02</wgt>
<wgt id='3485'>0.78497E+02</wgt>
<wgt id='3486'>0.77429E+02</wgt>
<wgt id='3487'>0.78910E+02</wgt>
<wgt id='3488'>0.79710E+02</wgt>
<wgt id='3489'>0.77925E+02</wgt>
<wgt id='3490'>0.78863E+02</wgt>
<wgt id='3491'>0.78829E+02</wgt>
<wgt id='3492'>0.79132E+02</wgt>
<wgt id='3493'>0.78166E+02</wgt>
<wgt id='3494'>0.77113E+02</wgt>
<wgt id='3495'>0.78825E+02</wgt>
<wgt id='3496'>0.77624E+02</wgt>
<wgt id='3497'>0.78080E+02</wgt>
<wgt id='3498'>0.79055E+02</wgt>
<wgt id='3499'>0.78812E+02</wgt>
<wgt id='3500'>0.79438E+02</wgt>
</rwgt>
</event>
<event>
     13 322200  8.11039E+01  6.84436E+01 -1.00000E+00  1.29919E-01
      21    -1     0     0   504   505  0.000000000E+00  0.000000000E+00  1.119086309E+03  1.119086309E+03  0.000000000E+00  0.00000E+00  9.000E+00
      21    -1     0     0   502   503  0.000000000E+00  0.000000000E+00 -5.123115278E+02  5.123115278E+02  0.000000000E+00  0.00000E+00  9.000E+00
       6     2     1     2   502     0 -4.359223468E+02  5.049995064E+01  1.031760177E+02  4.834566122E+02  1.746610083E+02  0.00000E+00  9.000E+00
      -6     2     1     2     0   505  5.012476774E+02 -3.007620597E+01  7.350413865E+02  9.065904088E+02  1.716581402E+02  0.00000E+00  9.000E+00
      21     1     1     2   504   503 -6.532533057E+01 -2.042374467E+01 -2.314426234E+02  2.413508153E+02  3.814697266E-06  0.00000E+00  9.000E+00
      24     2     3     3     0     0 -4.350289629E+02  4.017813150E+01  1.223771901E+02  4.610595877E+02  8.206878772E+01  0.00000E+00  9.000E+00
       5     1     3     3   502     0 -8.933839322E-01  1.032181915E+01 -1.920117246E+01  2.239702456E+01  5.060000000E+00  0.00000E+00 -1.000E+00
     -24     2     4     4     0     0  4.440961321E+02 -2.099251220E+01  5.472973922E+02  7.100650323E+02  8.364122416E+01  0.00000E+00  9.000E+00
      -5     1     4     4     0   505  5.715154530E+01 -9.083693775E+00  1.877439943E+02  1.965253765E+02  5.060000000E+00  0.00000E+00  1.000E+00
     -13     1     6     6     0     0 -2.725919539E+02  5.858236227E+01  9.925700031E+01  2.959564660E+02  1.057000000E-01  0.00000E+00  1.000E+00
      14     1     6     6     0     0 -1.624370090E+02 -1.840423078E+01  2.312018982E+01  1.651031216E+02  0.000000000E+00  0.00000E+00 -1.000E+00
      11     1     8     8     0     0  2.416614648E+02  2.708417542E+01  2.695921314E+02  3.630616110E+02  5.100000000E-04  0.00000E+00 -1.000E+00
     -12     1     8     8     0     0  2.024346673E+02 -4.807668762E+01  2.777052609E+02  3.470034212E+02  0.000000000E+00  0.00000E+00  1.000E+00
#rwgt            2           1   17.755209043538187               10       13414           0
<rwgt>
<wgt id='1001'>0.81104E+02</wgt>
<wgt id='1002'>0.70892E+02</wgt>
<wgt id='1003'>0.93703E+02</wgt>
<wgt id='1004'>0.64116E+02</wgt>
<wgt id='1005'>0.56043E+02</wgt>
<wgt id='1006'>0.74076E+02</wgt>
<wgt id='1007'>0.10476E+03</wgt>
<wgt id='1008'>0.91567E+02</wgt>
<wgt id='1009'>0.12103E+03</wgt>
<wgt id='2000'>0.81104E+02</wgt>
<wgt id='2001'>0.80878E+02</wgt>
<wgt id='2002'>0.81048E+02</wgt>
<wgt id='2003'>0.81061E+02</wgt>
<wgt id='2004'>0.81387E+02</wgt>
<wgt id='2005'>0.80606E+02</wgt>
<wgt id='2006'>0.81185E+02</wgt>
<wgt id='2007'>0.80764E+02</wgt>
<wgt id='2008'>0.80721E+02</wgt>
<wgt id='2009'>0.81211E+02</wgt>
<wgt id='2010'>0.80948E+02</wgt>
<wgt id='2011'>0.81618E+02</wgt>
<wgt id='2012'>0.81214E+02</wgt>
<wgt id='2013'>0.81266E+02</wgt>
<wgt id='2014'>0.81335E+02</wgt>
<wgt id='2015'>0.81360E+02</wgt>
<wgt id='2016'>0.81311E+02</wgt>
<wgt id='2017'>0.81464E+02</wgt>
<wgt id='2018'>0.80487E+02</wgt>
<wgt id='2019'>0.80420E+02</wgt>
<wgt id='2020'>0.81053E+02</wgt>
<wgt id='2021'>0.80859E+02</wgt>
<wgt id='2022'>0.81227E+02</wgt>
<wgt id='2023'>0.81147E+02</wgt>
<wgt id='2024'>0.80622E+02</wgt>
<wgt id='2025'>0.81172E+02</wgt>
<wgt id='2026'>0.81076E+02</wgt>
<wgt id='2027'>0.81431E+02</wgt>
<wgt id='2028'>0.80608E+02</wgt>
<wgt id='2029'>0.80724E+02</wgt>
<wgt id='2030'>0.81313E+02</wgt>
<wgt id='2031'>0.80701E+02</wgt>
<wgt id='2032'>0.81028E+02</wgt>
<wgt id='2033'>0.80943E+02</wgt>
<wgt id='2034'>0.80722E+02</wgt>
<wgt id='2035'>0.81211E+02</wgt>
<wgt id='2036'>0.81257E+02</wgt>
<wgt id='2037'>0.80911E+02</wgt>
<wgt id='2038'>0.80989E+02</wgt>
<wgt id='2039'>0.81003E+02</wgt>
<wgt id='2040'>0.80954E+02</wgt>
<wgt id='2041'>0.80884E+02</wgt>
<wgt id='2042'>0.81314E+02</wgt>
<wgt id='2043'>0.81119E+02</wgt>
<wgt id='2044'>0.81214E+02</wgt>
<wgt id='2045'>0.81084E+02</wgt>
<wgt id='2046'>0.80921E+02</wgt>
<wgt id='2047'>0.81157E+02</wgt>
<wgt id='2048'>0.81092E+02</wgt>
<wgt id='2049'>0.80980E+02</wgt>
<wgt id='2050'>0.81002E+02</wgt>
<wgt id='2051'>0.81017E+02</wgt>
<wgt id='2052'>0.81288E+02</wgt>
<wgt id='2053'>0.81110E+02</wgt>
<wgt id='2054'>0.81071E+02</wgt>
<wgt id='2055'>0.80987E+02</wgt>
<wgt id='2056'>0.81020E+02</wgt>
<wgt id='2057'>0.81137E+02</wgt>
<wgt id='2058'>0.81198E+02</wgt>
<wgt id='2059'>0.81103E+02</wgt>
<wgt id='2060'>0.81065E+02</wgt>
<wgt id='2061'>0.81037E+02</wgt>
<wgt id='2062'>0.81199E+02</wgt>
<wgt id='2063'>0.81135E+02</wgt>
<wgt id='2064'>0.81095E+02</wgt>
<wgt id='2065'>0.81204E+02</wgt>
<wgt id='2066'>0.81017E+02</wgt>
<wgt id='2067'>0.81031E+02</wgt>
<wgt id='2068'>0.81224E+02</wgt>
<wgt id='2069'>0.81085E+02</wgt>
<wgt id='2070'>0.81145E+02</wgt>
<wgt id='2071'>0.81035E+02</wgt>
<wgt id='2072'>0.81052E+02</wgt>
<wgt id='2073'>0.81130E+02</wgt>
<wgt id='2074'>0.81040E+02</wgt>
<wgt id='2075'>0.81087E+02</wgt>
<wgt id='2076'>0.81090E+02</wgt>
<wgt id='2077'>0.81157E+02</wgt>
<wgt id='2078'>0.81135E+02</wgt>
<wgt id='2079'>0.81068E+02</wgt>
<wgt id='2080'>0.81110E+02</wgt>
<wgt id='2081'>0.81082E+02</wgt>
<wgt id='2082'>0.81116E+02</wgt>
<wgt id='2083'>0.81205E+02</wgt>
<wgt id='2084'>0.81083E+02</wgt>
<wgt id='2085'>0.81132E+02</wgt>
<wgt id='2086'>0.81099E+02</wgt>
<wgt id='2087'>0.81116E+02</wgt>
<wgt id='2088'>0.81087E+02</wgt>
<wgt id='2089'>0.81059E+02</wgt>
<wgt id='2090'>0.81140E+02</wgt>
<wgt id='2091'>0.81118E+02</wgt>
<wgt id='2092'>0.81167E+02</wgt>
<wgt id='2093'>0.81056E+02</wgt>
<wgt id='2094'>0.81122E+02</wgt>
<wgt id='2095'>0.81152E+02</wgt>
<wgt id='2096'>0.81076E+02</wgt>
<wgt id='2097'>0.81142E+02</wgt>
<wgt id='2098'>0.81107E+02</wgt>
<wgt id='2099'>0.81121E+02</wgt>
<wgt id='2100'>0.81104E+02</wgt>
<wgt id='2101'>0.78639E+02</wgt>
<wgt id='2102'>0.83998E+02</wgt>
<wgt id='2200'>0.81006E+02</wgt>
<wgt id='2201'>0.68040E+02</wgt>
<wgt id='2202'>0.70844E+02</wgt>
<wgt id='2203'>0.73554E+02</wgt>
<wgt id='2204'>0.75344E+02</wgt>
<wgt id='2205'>0.79485E+02</wgt>
<wgt id='2206'>0.82562E+02</wgt>
<wgt id='2207'>0.86659E+02</wgt>
<wgt id='2208'>0.89993E+02</wgt>
<wgt id='2300'>0.87271E+02</wgt>
<wgt id='2301'>0.87196E+02</wgt>
<wgt id='2302'>0.87387E+02</wgt>
<wgt id='2303'>0.86995E+02</wgt>
<wgt id='2304'>0.87580E+02</wgt>
<wgt id='2305'>0.87012E+02</wgt>
<wgt id='2306'>0.87121E+02</wgt>
<wgt id='2307'>0.87183E+02</wgt>
<wgt id='2308'>0.87310E+02</wgt>
<wgt id='2309'>0.87340E+02</wgt>
<wgt id='2310'>0.87216E+02</wgt>
<wgt id='2311'>0.87061E+02</wgt>
<wgt id='2312'>0.86975E+02</wgt>
<wgt id='2313'>0.87878E+02</wgt>
<wgt id='2314'>0.86972E+02</wgt>
<wgt id='2315'>0.86938E+02</wgt>
<wgt id='2316'>0.87330E+02</wgt>
<wgt id='2317'>0.86922E+02</wgt>
<wgt id='2318'>0.87309E+02</wgt>
<wgt id='2319'>0.87628E+02</wgt>
<wgt id='2320'>0.87494E+02</wgt>
<wgt id='2321'>0.87608E+02</wgt>
<wgt id='2322'>0.87212E+02</wgt>
<wgt id='2323'>0.87257E+02</wgt>
<wgt id='2324'>0.87254E+02</wgt>
<wgt id='2325'>0.87402E+02</wgt>
<wgt id='2326'>0.87130E+02</wgt>
<wgt id='2327'>0.87334E+02</wgt>
<wgt id='2328'>0.87140E+02</wgt>
<wgt id='2329'>0.87016E+02</wgt>
<wgt id='2330'>0.87992E+02</wgt>
<wgt id='2331'>0.87562E+02</wgt>
<wgt id='2332'>0.87122E+02</wgt>
<wgt id='2333'>0.87249E+02</wgt>
<wgt id='2334'>0.87229E+02</wgt>
<wgt id='2335'>0.87008E+02</wgt>
<wgt id='2336'>0.87328E+02</wgt>
<wgt id='2337'>0.87564E+02</wgt>
<wgt id='2338'>0.87266E+02</wgt>
<wgt id='2339'>0.87230E+02</wgt>
<wgt id='2340'>0.87512E+02</wgt>
<wgt id='2341'>0.87507E+02</wgt>
<wgt id='2342'>0.87116E+02</wgt>
<wgt id='2343'>0.87082E+02</wgt>
<wgt id='2344'>0.87280E+02</wgt>
<wgt id='2345'>0.87211E+02</wgt>
<wgt id='2346'>0.87766E+02</wgt>
<wgt id='2347'>0.87349E+02</wgt>
<wgt id='2348'>0.87209E+02</wgt>
<wgt id='2349'>0.87267E+02</wgt>
<wgt id='2350'>0.86865E+02</wgt>
<wgt id='2351'>0.87514E+02</wgt>
<wgt id='2352'>0.87046E+02</wgt>
<wgt id='2353'>0.87304E+02</wgt>
<wgt id='2354'>0.87416E+02</wgt>
<wgt id='2355'>0.87126E+02</wgt>
<wgt id='2356'>0.87184E+02</wgt>
<wgt id='2357'>0.87341E+02</wgt>
<wgt id='2358'>0.87139E+02</wgt>
<wgt id='2359'>0.87206E+02</wgt>
<wgt id='2360'>0.87462E+02</wgt>
<wgt id='2361'>0.87307E+02</wgt>
<wgt id='2362'>0.87349E+02</wgt>
<wgt id='2363'>0.87137E+02</wgt>
<wgt id='2364'>0.87305E+02</wgt>
<wgt id='2365'>0.87129E+02</wgt>
<wgt id='2366'>0.87327E+02</wgt>
<wgt id='2367'>0.87089E+02</wgt>
<wgt id='2368'>0.87306E+02</wgt>
<wgt id='2369'>0.87154E+02</wgt>
<wgt id='2370'>0.87207E+02</wgt>
<wgt id='2371'>0.87221E+02</wgt>
<wgt id='2372'>0.87323E+02</wgt>
<wgt id='2373'>0.87256E+02</wgt>
<wgt id='2374'>0.87456E+02</wgt>
<wgt id='2375'>0.87333E+02</wgt>
<wgt id='2376'>0.87341E+02</wgt>
<wgt id='2377'>0.87304E+02</wgt>
<wgt id='2378'>0.87358E+02</wgt>
<wgt id='2379'>0.87110E+02</wgt>
<wgt id='2380'>0.87186E+02</wgt>
<wgt id='2381'>0.87215E+02</wgt>
<wgt id='2382'>0.87181E+02</wgt>
<wgt id='2383'>0.87246E+02</wgt>
<wgt id='2384'>0.87211E+02</wgt>
<wgt id='2385'>0.87340E+02</wgt>
<wgt id='2386'>0.87223E+02</wgt>
<wgt id='2387'>0.87169E+02</wgt>
<wgt id='2388'>0.87198E+02</wgt>
<wgt id='2389'>0.87252E+02</wgt>
<wgt id='2390'>0.87249E+02</wgt>
<wgt id='2391'>0.87221E+02</wgt>
<wgt id='2392'>0.87268E+02</wgt>
<wgt id='2393'>0.87314E+02</wgt>
<wgt id='2394'>0.87317E+02</wgt>
<wgt id='2395'>0.87282E+02</wgt>
<wgt id='2396'>0.87242E+02</wgt>
<wgt id='2397'>0.87242E+02</wgt>
<wgt id='2398'>0.87255E+02</wgt>
<wgt id='2399'>0.87303E+02</wgt>
<wgt id='2400'>0.87307E+02</wgt>
<wgt id='2401'>0.84705E+02</wgt>
<wgt id='2402'>0.89938E+02</wgt>
<wgt id='2500'>0.85127E+02</wgt>
<wgt id='2501'>0.91899E+02</wgt>
<wgt id='2600'>0.78670E+02</wgt>
<wgt id='2601'>0.78572E+02</wgt>
<wgt id='2602'>0.78448E+02</wgt>
<wgt id='2603'>0.78666E+02</wgt>
<wgt id='2604'>0.78439E+02</wgt>
<wgt id='2605'>0.78548E+02</wgt>
<wgt id='2606'>0.78885E+02</wgt>
<wgt id='2607'>0.78580E+02</wgt>
<wgt id='2608'>0.78867E+02</wgt>
<wgt id='2609'>0.78489E+02</wgt>
<wgt id='2610'>0.78591E+02</wgt>
<wgt id='2611'>0.78627E+02</wgt>
<wgt id='2612'>0.78681E+02</wgt>
<wgt id='2613'>0.78686E+02</wgt>
<wgt id='2614'>0.78548E+02</wgt>
<wgt id='2615'>0.78395E+02</wgt>
<wgt id='2616'>0.78736E+02</wgt>
<wgt id='2617'>0.78353E+02</wgt>
<wgt id='2618'>0.78647E+02</wgt>
<wgt id='2619'>0.78785E+02</wgt>
<wgt id='2620'>0.78434E+02</wgt>
<wgt id='2621'>0.78819E+02</wgt>
<wgt id='2622'>0.79093E+02</wgt>
<wgt id='2623'>0.78622E+02</wgt>
<wgt id='2624'>0.78584E+02</wgt>
<wgt id='2625'>0.78804E+02</wgt>
<wgt id='2626'>0.78762E+02</wgt>
<wgt id='2627'>0.78782E+02</wgt>
<wgt id='2628'>0.78615E+02</wgt>
<wgt id='2629'>0.78808E+02</wgt>
<wgt id='2630'>0.78936E+02</wgt>
<wgt id='2631'>0.78632E+02</wgt>
<wgt id='2632'>0.78405E+02</wgt>
<wgt id='2633'>0.78607E+02</wgt>
<wgt id='2634'>0.78641E+02</wgt>
<wgt id='2635'>0.78472E+02</wgt>
<wgt id='2636'>0.78706E+02</wgt>
<wgt id='2637'>0.78626E+02</wgt>
<wgt id='2638'>0.78663E+02</wgt>
<wgt id='2639'>0.78664E+02</wgt>
<wgt id='2640'>0.78701E+02</wgt>
<wgt id='2641'>0.78611E+02</wgt>
<wgt id='2642'>0.78680E+02</wgt>
<wgt id='2643'>0.78640E+02</wgt>
<wgt id='2644'>0.78646E+02</wgt>
<wgt id='2645'>0.78610E+02</wgt>
<wgt id='2646'>0.78648E+02</wgt>
<wgt id='2647'>0.78676E+02</wgt>
<wgt id='2648'>0.78670E+02</wgt>
<wgt id='2649'>0.78700E+02</wgt>
<wgt id='2650'>0.78684E+02</wgt>
<wgt id='2651'>0.77010E+02</wgt>
<wgt id='2652'>0.79990E+02</wgt>
<wgt id='2700'>0.75488E+02</wgt>
<wgt id='2701'>0.77010E+02</wgt>
<wgt id='2702'>0.77855E+02</wgt>
<wgt id='2703'>0.79400E+02</wgt>
<wgt id='2704'>0.79990E+02</wgt>
<wgt id='2705'>0.81722E+02</wgt>
<wgt id='2800'>0.81646E+02</wgt>
<wgt id='4000'>0.86935E+02</wgt>
<wgt id='4001'>0.87298E+02</wgt>
<wgt id='4002'>0.87301E+02</wgt>
<wgt id='4003'>0.84847E+02</wgt>
<wgt id='4004'>0.90089E+02</wgt>
<wgt id='4005'>0.87919E+02</wgt>
<wgt id='4006'>0.86517E+02</wgt>
<wgt id='4007'>0.86836E+02</wgt>
<wgt id='4008'>0.87200E+02</wgt>
<wgt id='4009'>0.86322E+02</wgt>
<wgt id='4010'>0.86840E+02</wgt>
<wgt id='4011'>0.87610E+02</wgt>
<wgt id='4012'>0.86057E+02</wgt>
<wgt id='4013'>0.87632E+02</wgt>
<wgt id='4014'>0.86668E+02</wgt>
<wgt id='4015'>0.87486E+02</wgt>
<wgt id='4016'>0.89199E+02</wgt>
<wgt id='4017'>0.87175E+02</wgt>
<wgt id='4018'>0.86761E+02</wgt>
<wgt id='4019'>0.86590E+02</wgt>
<wgt id='4020'>0.87974E+02</wgt>
<wgt id='4021'>0.87580E+02</wgt>
<wgt id='4022'>0.85869E+02</wgt>
<wgt id='4023'>0.88631E+02</wgt>
<wgt id='4024'>0.86851E+02</wgt>
<wgt id='4025'>0.86641E+02</wgt>
<wgt id='4026'>0.87988E+02</wgt>
<wgt id='4027'>0.88858E+02</wgt>
<wgt id='4028'>0.85656E+02</wgt>
<wgt id='4029'>0.89557E+02</wgt>
<wgt id='4030'>0.85144E+02</wgt>
<wgt id='4031'>0.86433E+02</wgt>
<wgt id='4032'>0.91189E+02</wgt>
<wgt id='4033'>0.88914E+02</wgt>
<wgt id='4034'>0.85284E+02</wgt>
<wgt id='4035'>0.88089E+02</wgt>
<wgt id='4036'>0.86318E+02</wgt>
<wgt id='4037'>0.91299E+02</wgt>
<wgt id='4038'>0.83899E+02</wgt>
<wgt id='4039'>0.89481E+02</wgt>
<wgt id='4040'>0.84857E+02</wgt>
<wgt id='4041'>0.87657E+02</wgt>
<wgt id='4042'>0.86158E+02</wgt>
<wgt id='4043'>0.86687E+02</wgt>
<wgt id='4044'>0.85885E+02</wgt>
<wgt id='4045'>0.85746E+02</wgt>
<wgt id='4046'>0.87786E+02</wgt>
<wgt id='4047'>0.88220E+02</wgt>
<wgt id='4048'>0.87368E+02</wgt>
<wgt id='4049'>0.87344E+02</wgt>
<wgt id='4050'>0.87027E+02</wgt>
<wgt id='4051'>0.86107E+02</wgt>
<wgt id='4052'>0.88240E+02</wgt>
<wgt id='4053'>0.86640E+02</wgt>
<wgt id='4054'>0.86358E+02</wgt>
<wgt id='4055'>0.87820E+02</wgt>
<wgt id='4056'>0.86399E+02</wgt>
<wgt id='4057'>0.86024E+02</wgt>
<wgt id='4058'>0.87455E+02</wgt>
<wgt id='4100'>0.86361E+02</wgt>
<wgt id='4101'>0.86571E+02</wgt>
<wgt id='4102'>0.87410E+02</wgt>
<wgt id='4103'>0.87950E+02</wgt>
<wgt id='4200'>0.84180E+02</wgt>
<wgt id='4201'>0.84180E+02</wgt>
<wgt id='4202'>0.84734E+02</wgt>
<wgt id='4203'>0.83554E+02</wgt>
<wgt id='4204'>0.84387E+02</wgt>
<wgt id='4205'>0.84029E+02</wgt>
<wgt id='4206'>0.84893E+02</wgt>
<wgt id='4207'>0.85381E+02</wgt>
<wgt id='4208'>0.83792E+02</wgt>
<wgt id='4209'>0.84106E+02</wgt>
<wgt id='4210'>0.84429E+02</wgt>
<wgt id='4211'>0.84702E+02</wgt>
<wgt id='4212'>0.83848E+02</wgt>
<wgt id='4213'>0.84388E+02</wgt>
<wgt id='4214'>0.83932E+02</wgt>
<wgt id='4215'>0.84145E+02</wgt>
<wgt id='4216'>0.84771E+02</wgt>
<wgt id='4217'>0.84265E+02</wgt>
<wgt id='4218'>0.84008E+02</wgt>
<wgt id='4219'>0.84078E+02</wgt>
<wgt id='4220'>0.84637E+02</wgt>
<wgt id='4221'>0.84027E+02</wgt>
<wgt id='4222'>0.84993E+02</wgt>
<wgt id='4223'>0.82306E+02</wgt>
<wgt id='4224'>0.83829E+02</wgt>
<wgt id='4225'>0.83963E+02</wgt>
<wgt id='4226'>0.85457E+02</wgt>
<wgt id='4227'>0.85753E+02</wgt>
<wgt id='4228'>0.82940E+02</wgt>
<wgt id='4229'>0.81735E+02</wgt>
<wgt id='4230'>0.86445E+02</wgt>
<wgt id='4231'>0.85394E+02</wgt>
<wgt id='4232'>0.82428E+02</wgt>
<wgt id='4233'>0.84766E+02</wgt>
<wgt id='4234'>0.82552E+02</wgt>
<wgt id='4235'>0.85725E+02</wgt>
<wgt id='4236'>0.82849E+02</wgt>
<wgt id='4237'>0.86326E+02</wgt>
<wgt id='4238'>0.80881E+02</wgt>
<wgt id='4239'>0.83122E+02</wgt>
<wgt id='4240'>0.85065E+02</wgt>
<wgt id='4241'>0.84916E+02</wgt>
<wgt id='4242'>0.83393E+02</wgt>
<wgt id='4243'>0.84646E+02</wgt>
<wgt id='4244'>0.84331E+02</wgt>
<wgt id='4245'>0.84874E+02</wgt>
<wgt id='4246'>0.82753E+02</wgt>
<wgt id='4247'>0.83078E+02</wgt>
<wgt id='4248'>0.84713E+02</wgt>
<wgt id='4249'>0.85697E+02</wgt>
<wgt id='4250'>0.82647E+02</wgt>
<wgt id='4251'>0.87782E+02</wgt>
<wgt id='4252'>0.82032E+02</wgt>
<wgt id='4253'>0.86080E+02</wgt>
<wgt id='4254'>0.82043E+02</wgt>
<wgt id='4255'>0.86800E+02</wgt>
<wgt id='4256'>0.83210E+02</wgt>
<wgt id='4257'>0.82726E+02</wgt>
<wgt id='4258'>0.84577E+02</wgt>
<wgt id='4300'>0.85885E+02</wgt>
<wgt id='4301'>0.86641E+02</wgt>
<wgt id='5000'>0.85278E+02</wgt>
<wgt id='5001'>0.85349E+02</wgt>
<wgt id='5002'>0.85187E+02</wgt>
<wgt id='5003'>0.85297E+02</wgt>
<wgt id='5004'>0.85260E+02</wgt>
<wgt id='5005'>0.85318E+02</wgt>
<wgt id='5006'>0.85213E+02</wgt>
<wgt id='5007'>0.85395E+02</wgt>
<wgt id='5008'>0.85183E+02</wgt>
<wgt id='5009'>0.85425E+02</wgt>
<wgt id='5010'>0.85127E+02</wgt>
<wgt id='5011'>0.85623E+02</wgt>
<wgt id='5012'>0.84946E+02</wgt>
<wgt id='5013'>0.85523E+02</wgt>
<wgt id='5014'>0.85104E+02</wgt>
<wgt id='5015'>0.84843E+02</wgt>
<wgt id='5016'>0.84843E+02</wgt>
<wgt id='5017'>0.85465E+02</wgt>
<wgt id='5018'>0.85154E+02</wgt>
<wgt id='5019'>0.85438E+02</wgt>
<wgt id='5020'>0.85055E+02</wgt>
<wgt id='5021'>0.85322E+02</wgt>
<wgt id='5022'>0.85214E+02</wgt>
<wgt id='5023'>0.85324E+02</wgt>
<wgt id='5024'>0.85166E+02</wgt>
<wgt id='5025'>0.85331E+02</wgt>
<wgt id='5026'>0.85209E+02</wgt>
<wgt id='5027'>0.85381E+02</wgt>
<wgt id='5028'>0.85001E+02</wgt>
<wgt id='5029'>0.86945E+02</wgt>
<wgt id='5030'>0.84351E+02</wgt>
<wgt id='5031'>0.84251E+02</wgt>
<wgt id='5032'>0.88494E+02</wgt>
<wgt id='5033'>0.85097E+02</wgt>
<wgt id='5034'>0.85472E+02</wgt>
<wgt id='5035'>0.85312E+02</wgt>
<wgt id='5036'>0.85232E+02</wgt>
<wgt id='5037'>0.84761E+02</wgt>
<wgt id='5038'>0.85568E+02</wgt>
<wgt id='5039'>0.85431E+02</wgt>
<wgt id='5040'>0.84882E+02</wgt>
<wgt id='5041'>0.84369E+02</wgt>
<wgt id='5042'>0.86238E+02</wgt>
<wgt id='5043'>0.85650E+02</wgt>
<wgt id='5044'>0.84939E+02</wgt>
<wgt id='5045'>0.85749E+02</wgt>
<wgt id='5046'>0.84806E+02</wgt>
<wgt id='5047'>0.85449E+02</wgt>
<wgt id='5048'>0.84527E+02</wgt>
<wgt id='5049'>0.85138E+02</wgt>
<wgt id='5050'>0.85644E+02</wgt>
<wgt id='5051'>0.85602E+02</wgt>
<wgt id='5052'>0.85110E+02</wgt>
<wgt id='5053'>0.85996E+02</wgt>
<wgt id='5054'>0.85442E+02</wgt>
<wgt id='5055'>0.85219E+02</wgt>
<wgt id='5056'>0.85397E+02</wgt>
<wgt id='5057'>0.84779E+02</wgt>
<wgt id='5058'>0.85631E+02</wgt>
<wgt id='5059'>0.85018E+02</wgt>
<wgt id='5060'>0.85416E+02</wgt>
<wgt id='5061'>0.85686E+02</wgt>
<wgt id='5062'>0.85709E+02</wgt>
<wgt id='5063'>0.85652E+02</wgt>
<wgt id='5064'>0.85450E+02</wgt>
<wgt id='5100'>0.85278E+02</wgt>
<wgt id='5101'>0.85216E+02</wgt>
<wgt id='6000'>0.84630E+02</wgt>
<wgt id='6001'>0.84016E+02</wgt>
<wgt id='6002'>0.83241E+02</wgt>
<wgt id='6003'>0.84186E+02</wgt>
<wgt id='6004'>0.85460E+02</wgt>
<wgt id='6005'>0.83711E+02</wgt>
<wgt id='6006'>0.84687E+02</wgt>
<wgt id='6007'>0.83655E+02</wgt>
<wgt id='6008'>0.86272E+02</wgt>
<wgt id='6009'>0.84528E+02</wgt>
<wgt id='6010'>0.84792E+02</wgt>
<wgt id='6011'>0.84608E+02</wgt>
<wgt id='6012'>0.84975E+02</wgt>
<wgt id='6013'>0.84105E+02</wgt>
<wgt id='6014'>0.84016E+02</wgt>
<wgt id='6015'>0.83478E+02</wgt>
<wgt id='6016'>0.85315E+02</wgt>
<wgt id='6017'>0.84103E+02</wgt>
<wgt id='6018'>0.83624E+02</wgt>
<wgt id='6019'>0.84934E+02</wgt>
<wgt id='6020'>0.84788E+02</wgt>
<wgt id='6021'>0.84517E+02</wgt>
<wgt id='6022'>0.85294E+02</wgt>
<wgt id='6023'>0.84595E+02</wgt>
<wgt id='6024'>0.84832E+02</wgt>
<wgt id='6025'>0.85294E+02</wgt>
<wgt id='6026'>0.84477E+02</wgt>
<wgt id='6027'>0.84675E+02</wgt>
<wgt id='6028'>0.83938E+02</wgt>
<wgt id='6029'>0.84231E+02</wgt>
<wgt id='6030'>0.83680E+02</wgt>
<wgt id='6031'>0.84199E+02</wgt>
<wgt id='6032'>0.84633E+02</wgt>
<wgt id='6033'>0.84497E+02</wgt>
<wgt id='6034'>0.85268E+02</wgt>
<wgt id='6035'>0.84724E+02</wgt>
<wgt id='6036'>0.85630E+02</wgt>
<wgt id='6037'>0.84600E+02</wgt>
<wgt id='6038'>0.84507E+02</wgt>
<wgt id='6039'>0.85098E+02</wgt>
<wgt id='6040'>0.84607E+02</wgt>
<wgt id='6041'>0.81273E+02</wgt>
<wgt id='6042'>0.84629E+02</wgt>
<wgt id='7000'>0.80063E+02</wgt>
<wgt id='7001'>0.78018E+02</wgt>
<wgt id='7002'>0.78203E+02</wgt>
<wgt id='7003'>0.78020E+02</wgt>
<wgt id='7004'>0.78202E+02</wgt>
<wgt id='7005'>0.78052E+02</wgt>
<wgt id='7006'>0.78170E+02</wgt>
<wgt id='7007'>0.78568E+02</wgt>
<wgt id='7008'>0.77667E+02</wgt>
<wgt id='7009'>0.77557E+02</wgt>
<wgt id='7010'>0.78683E+02</wgt>
<wgt id='7011'>0.78334E+02</wgt>
<wgt id='7012'>0.77899E+02</wgt>
<wgt id='7013'>0.78227E+02</wgt>
<wgt id='7014'>0.77988E+02</wgt>
<wgt id='7015'>0.78389E+02</wgt>
<wgt id='7016'>0.77619E+02</wgt>
<wgt id='7017'>0.77972E+02</wgt>
<wgt id='7018'>0.78277E+02</wgt>
<wgt id='7019'>0.78662E+02</wgt>
<wgt id='7020'>0.77594E+02</wgt>
<wgt id='7021'>0.80154E+02</wgt>
<wgt id='7022'>0.76263E+02</wgt>
<wgt id='7023'>0.76583E+02</wgt>
<wgt id='7024'>0.79675E+02</wgt>
<wgt id='7025'>0.76033E+02</wgt>
<wgt id='7026'>0.80286E+02</wgt>
<wgt id='7027'>0.77080E+02</wgt>
<wgt id='7028'>0.79188E+02</wgt>
<wgt id='8000'>0.80401E+02</wgt>
<wgt id='8001'>0.80402E+02</wgt>
<wgt id='8002'>0.80424E+02</wgt>
<wgt id='8003'>0.80395E+02</wgt>
<wgt id='8004'>0.80399E+02</wgt>
<wgt id='8005'>0.80296E+02</wgt>
<wgt id='8006'>0.80599E+02</wgt>
<wgt id='8007'>0.80753E+02</wgt>
<wgt id='8008'>0.80554E+02</wgt>
<wgt id='8009'>0.80686E+02</wgt>
<wgt id='8010'>0.80257E+02</wgt>
<wgt id='8011'>0.80489E+02</wgt>
<wgt id='8012'>0.80023E+02</wgt>
<wgt id='8013'>0.80138E+02</wgt>
<wgt id='8014'>0.80760E+02</wgt>
<wgt id='8015'>0.80362E+02</wgt>
<wgt id='8016'>0.80571E+02</wgt>
<wgt id='8017'>0.80563E+02</wgt>
<wgt id='8018'>0.80871E+02</wgt>
<wgt id='8019'>0.80064E+02</wgt>
<wgt id='8020'>0.81053E+02</wgt>
<wgt id='8021'>0.80154E+02</wgt>
<wgt id='8022'>0.81576E+02</wgt>
<wgt id='8023'>0.79876E+02</wgt>
<wgt id='8024'>0.79380E+02</wgt>
<wgt id='8025'>0.79537E+02</wgt>
<wgt id='8026'>0.80278E+02</wgt>
<wgt id='8027'>0.80755E+02</wgt>
<wgt id='8028'>0.80376E+02</wgt>
<wgt id='8029'>0.83180E+02</wgt>
<wgt id='3000'>0.81104E+02</wgt>
<wgt id='3001'>0.84963E+02</wgt>
<wgt id='3002'>0.79610E+02</wgt>
<wgt id='3003'>0.79890E+02</wgt>
<wgt id='3004'>0.82023E+02</wgt>
<wgt id='3005'>0.81361E+02</wgt>
<wgt id='3006'>0.83430E+02</wgt>
<wgt id='3007'>0.79184E+02</wgt>
<wgt id='3008'>0.78428E+02</wgt>
<wgt id='3009'>0.79205E+02</wgt>
<wgt id='3010'>0.86059E+02</wgt>
<wgt id='3011'>0.81465E+02</wgt>
<wgt id='3012'>0.81836E+02</wgt>
<wgt id='3013'>0.80896E+02</wgt>
<wgt id='3014'>0.81875E+02</wgt>
<wgt id='3015'>0.77635E+02</wgt>
<wgt id='3016'>0.79453E+02</wgt>
<wgt id='3017'>0.81123E+02</wgt>
<wgt id='3018'>0.79556E+02</wgt>
<wgt id='3019'>0.78658E+02</wgt>
<wgt id='3020'>0.78869E+02</wgt>
<wgt id='3021'>0.80703E+02</wgt>
<wgt id='3022'>0.77947E+02</wgt>
<wgt id='3023'>0.78797E+02</wgt>
<wgt id='3024'>0.81780E+02</wgt>
<wgt id='3025'>0.79250E+02</wgt>
<wgt id='3026'>0.79295E+02</wgt>
<wgt id='3027'>0.81906E+02</wgt>
<wgt id='3028'>0.79398E+02</wgt>
<wgt id='3029'>0.81100E+02</wgt>
<wgt id='3030'>0.80579E+02</wgt>
<wgt id='3031'>0.83482E+02</wgt>
<wgt id='3032'>0.81557E+02</wgt>
<wgt id='3033'>0.80052E+02</wgt>
<wgt id='3034'>0.83527E+02</wgt>
<wgt id='3035'>0.81202E+02</wgt>
<wgt id='3036'>0.81874E+02</wgt>
<wgt id='3037'>0.78848E+02</wgt>
<wgt id='3038'>0.81277E+02</wgt>
<wgt id='3039'>0.81537E+02</wgt>
<wgt id='3040'>0.80866E+02</wgt>
<wgt id='3041'>0.80617E+02</wgt>
<wgt id='3042'>0.83483E+02</wgt>
<wgt id='3043'>0.82931E+02</wgt>
<wgt id='3044'>0.83760E+02</wgt>
<wgt id='3045'>0.80724E+02</wgt>
<wgt id='3046'>0.81232E+02</wgt>
<wgt id='3047'>0.83582E+02</wgt>
<wgt id='3048'>0.83543E+02</wgt>
<wgt id='3049'>0.80781E+02</wgt>
<wgt id='3050'>0.82262E+02</wgt>
<wgt id='3051'>0.81719E+02</wgt>
<wgt id='3052'>0.79934E+02</wgt>
<wgt id='3053'>0.82226E+02</wgt>
<wgt id='3054'>0.80049E+02</wgt>
<wgt id='3055'>0.81403E+02</wgt>
<wgt id='3056'>0.81102E+02</wgt>
<wgt id='3057'>0.79700E+02</wgt>
<wgt id='3058'>0.83298E+02</wgt>
<wgt id='3059'>0.77376E+02</wgt>
<wgt id='3060'>0.80638E+02</wgt>
<wgt id='3061'>0.81433E+02</wgt>
<wgt id='3062'>0.81683E+02</wgt>
<wgt id='3063'>0.81041E+02</wgt>
<wgt id='3064'>0.83193E+02</wgt>
<wgt id='3065'>0.79066E+02</wgt>
<wgt id='3066'>0.82215E+02</wgt>
<wgt id='3067'>0.81114E+02</wgt>
<wgt id='3068'>0.79218E+02</wgt>
<wgt id='3069'>0.81557E+02</wgt>
<wgt id='3070'>0.84169E+02</wgt>
<wgt id='3071'>0.79763E+02</wgt>
<wgt id='3072'>0.79025E+02</wgt>
<wgt id='3073'>0.79838E+02</wgt>
<wgt id='3074'>0.78020E+02</wgt>
<wgt id='3075'>0.81088E+02</wgt>
<wgt id='3076'>0.82732E+02</wgt>
<wgt id='3077'>0.82415E+02</wgt>
<wgt id='3078'>0.79530E+02</wgt>
<wgt id='3079'>0.80676E+02</wgt>
<wgt id='3080'>0.86540E+02</wgt>
<wgt id='3081'>0.83357E+02</wgt>
<wgt id='3082'>0.79453E+02</wgt>
<wgt id='3083'>0.82319E+02</wgt>
<wgt id='3084'>0.79106E+02</wgt>
<wgt id='3085'>0.79168E+02</wgt>
<wgt id='3086'>0.85991E+02</wgt>
<wgt id='3087'>0.79181E+02</wgt>
<wgt id='3088'>0.82758E+02</wgt>
<wgt id='3089'>0.81510E+02</wgt>
<wgt id='3090'>0.82306E+02</wgt>
<wgt id='3091'>0.80234E+02</wgt>
<wgt id='3092'>0.81392E+02</wgt>
<wgt id='3093'>0.80103E+02</wgt>
<wgt id='3094'>0.82131E+02</wgt>
<wgt id='3095'>0.81497E+02</wgt>
<wgt id='3096'>0.80082E+02</wgt>
<wgt id='3097'>0.87491E+02</wgt>
<wgt id='3098'>0.80740E+02</wgt>
<wgt id='3099'>0.78194E+02</wgt>
<wgt id='3100'>0.78951E+02</wgt>
<wgt id='3200'>0.78875E+02</wgt>
<wgt id='3201'>0.79093E+02</wgt>
<wgt id='3202'>0.77020E+02</wgt>
<wgt id='3203'>0.80277E+02</wgt>
<wgt id='3204'>0.78845E+02</wgt>
<wgt id='3205'>0.79712E+02</wgt>
<wgt id='3206'>0.79871E+02</wgt>
<wgt id='3207'>0.79461E+02</wgt>
<wgt id='3208'>0.78980E+02</wgt>
<wgt id='3209'>0.78943E+02</wgt>
<wgt id='3210'>0.78801E+02</wgt>
<wgt id='3211'>0.77586E+02</wgt>
<wgt id='3212'>0.78877E+02</wgt>
<wgt id='3213'>0.80085E+02</wgt>
<wgt id='3214'>0.79713E+02</wgt>
<wgt id='3215'>0.78548E+02</wgt>
<wgt id='3216'>0.80790E+02</wgt>
<wgt id='3217'>0.78818E+02</wgt>
<wgt id='3218'>0.79775E+02</wgt>
<wgt id='3219'>0.77418E+02</wgt>
<wgt id='3220'>0.79020E+02</wgt>
<wgt id='3221'>0.78556E+02</wgt>
<wgt id='3222'>0.80703E+02</wgt>
<wgt id='3223'>0.78521E+02</wgt>
<wgt id='3224'>0.78921E+02</wgt>
<wgt id='3225'>0.79689E+02</wgt>
<wgt id='3226'>0.79022E+02</wgt>
<wgt id='3227'>0.78886E+02</wgt>
<wgt id='3228'>0.78634E+02</wgt>
<wgt id='3229'>0.79778E+02</wgt>
<wgt id='3230'>0.79291E+02</wgt>
<wgt id='3231'>0.79008E+02</wgt>
<wgt id='3232'>0.79161E+02</wgt>
<wgt id='3233'>0.79842E+02</wgt>
<wgt id='3234'>0.76677E+02</wgt>
<wgt id='3235'>0.78682E+02</wgt>
<wgt id='3236'>0.79348E+02</wgt>
<wgt id='3237'>0.79118E+02</wgt>
<wgt id='3238'>0.79082E+02</wgt>
<wgt id='3239'>0.77583E+02</wgt>
<wgt id='3240'>0.76226E+02</wgt>
<wgt id='3241'>0.79648E+02</wgt>
<wgt id='3242'>0.80061E+02</wgt>
<wgt id='3243'>0.79374E+02</wgt>
<wgt id='3244'>0.79493E+02</wgt>
<wgt id='3245'>0.79413E+02</wgt>
<wgt id='3246'>0.77185E+02</wgt>
<wgt id='3247'>0.78262E+02</wgt>
<wgt id='3248'>0.78832E+02</wgt>
<wgt id='3249'>0.77453E+02</wgt>
<wgt id='3250'>0.77599E+02</wgt>
<wgt id='3251'>0.78206E+02</wgt>
<wgt id='3252'>0.80630E+02</wgt>
<wgt id='3253'>0.79304E+02</wgt>
<wgt id='3254'>0.77757E+02</wgt>
<wgt id='3255'>0.77466E+02</wgt>
<wgt id='3256'>0.79477E+02</wgt>
<wgt id='3257'>0.78091E+02</wgt>
<wgt id='3258'>0.77668E+02</wgt>
<wgt id='3259'>0.78309E+02</wgt>
<wgt id='3260'>0.80102E+02</wgt>
<wgt id='3261'>0.79072E+02</wgt>
<wgt id='3262'>0.80442E+02</wgt>
<wgt id='3263'>0.80389E+02</wgt>
<wgt id='3264'>0.79160E+02</wgt>
<wgt id='3265'>0.78452E+02</wgt>
<wgt id='3266'>0.79118E+02</wgt>
<wgt id='3267'>0.78630E+02</wgt>
<wgt id='3268'>0.76621E+02</wgt>
<wgt id='3269'>0.78313E+02</wgt>
<wgt id='3270'>0.79799E+02</wgt>
<wgt id='3271'>0.78330E+02</wgt>
<wgt id='3272'>0.78905E+02</wgt>
<wgt id='3273'>0.78523E+02</wgt>
<wgt id='3274'>0.78735E+02</wgt>
<wgt id='3275'>0.80212E+02</wgt>
<wgt id='3276'>0.76894E+02</wgt>
<wgt id='3277'>0.78152E+02</wgt>
<wgt id='3278'>0.79869E+02</wgt>
<wgt id='3279'>0.79556E+02</wgt>
<wgt id='3280'>0.78796E+02</wgt>
<wgt id='3281'>0.80285E+02</wgt>
<wgt id='3282'>0.78614E+02</wgt>
<wgt id='3283'>0.79890E+02</wgt>
<wgt id='3284'>0.78294E+02</wgt>
<wgt id='3285'>0.79095E+02</wgt>
<wgt id='3286'>0.77098E+02</wgt>
<wgt id='3287'>0.80897E+02</wgt>
<wgt id='3288'>0.77045E+02</wgt>
<wgt id='3289'>0.78705E+02</wgt>
<wgt id='3290'>0.78126E+02</wgt>
<wgt id='3291'>0.77986E+02</wgt>
<wgt id='3292'>0.78650E+02</wgt>
<wgt id='3293'>0.79572E+02</wgt>
<wgt id='3294'>0.78765E+02</wgt>
<wgt id='3295'>0.78417E+02</wgt>
<wgt id='3296'>0.79853E+02</wgt>
<wgt id='3297'>0.78657E+02</wgt>
<wgt id='3298'>0.77168E+02</wgt>
<wgt id='3299'>0.79584E+02</wgt>
<wgt id='3300'>0.80352E+02</wgt>
<wgt id='3301'>0.77010E+02</wgt>
<wgt id='3302'>0.79990E+02</wgt>
<wgt id='3400'>0.79143E+02</wgt>
<wgt id='3401'>0.80419E+02</wgt>
<wgt id='3402'>0.76963E+02</wgt>
<wgt id='3403'>0.79305E+02</wgt>
<wgt id='3404'>0.79678E+02</wgt>
<wgt id='3405'>0.80568E+02</wgt>
<wgt id='3406'>0.79386E+02</wgt>
<wgt id='3407'>0.78240E+02</wgt>
<wgt id='3408'>0.78905E+02</wgt>
<wgt id='3409'>0.79188E+02</wgt>
<wgt id='3410'>0.81252E+02</wgt>
<wgt id='3411'>0.79555E+02</wgt>
<wgt id='3412'>0.78930E+02</wgt>
<wgt id='3413'>0.78768E+02</wgt>
<wgt id='3414'>0.79567E+02</wgt>
<wgt id='3415'>0.79467E+02</wgt>
<wgt id='3416'>0.79525E+02</wgt>
<wgt id='3417'>0.78402E+02</wgt>
<wgt id='3418'>0.78757E+02</wgt>
<wgt id='3419'>0.78352E+02</wgt>
<wgt id='3420'>0.78454E+02</wgt>
<wgt id='3421'>0.79020E+02</wgt>
<wgt id='3422'>0.77087E+02</wgt>
<wgt id='3423'>0.81780E+02</wgt>
<wgt id='3424'>0.79609E+02</wgt>
<wgt id='3425'>0.79456E+02</wgt>
<wgt id='3426'>0.77828E+02</wgt>
<wgt id='3427'>0.78703E+02</wgt>
<wgt id='3428'>0.77622E+02</wgt>
<wgt id='3429'>0.78120E+02</wgt>
<wgt id='3430'>0.78149E+02</wgt>
<wgt id='3431'>0.78860E+02</wgt>
<wgt id='3432'>0.78944E+02</wgt>
<wgt id='3433'>0.79728E+02</wgt>
<wgt id='3434'>0.81651E+02</wgt>
<wgt id='3435'>0.81416E+02</wgt>
<wgt id='3436'>0.78946E+02</wgt>
<wgt id='3437'>0.79516E+02</wgt>
<wgt id='3438'>0.78477E+02</wgt>
<wgt id='3439'>0.77356E+02</wgt>
<wgt id='3440'>0.79851E+02</wgt>
<wgt id='3441'>0.80140E+02</wgt>
<wgt id='3442'>0.80260E+02</wgt>
<wgt id='3443'>0.80206E+02</wgt>
<wgt id='3444'>0.79179E+02</wgt>
<wgt id='3445'>0.78316E+02</wgt>
<wgt id='3446'>0.80282E+02</wgt>
<wgt id='3447'>0.78058E+02</wgt>
<wgt id='3448'>0.79678E+02</wgt>
<wgt id='3449'>0.79938E+02</wgt>
<wgt id='3450'>0.79025E+02</wgt>
<wgt id='3451'>0.78439E+02</wgt>
<wgt id='3452'>0.78637E+02</wgt>
<wgt id='3453'>0.76974E+02</wgt>
<wgt id='3454'>0.79483E+02</wgt>
<wgt id='3455'>0.79646E+02</wgt>
<wgt id='3456'>0.78834E+02</wgt>
<wgt id='3457'>0.80033E+02</wgt>
<wgt id='3458'>0.78603E+02</wgt>
<wgt id='3459'>0.80009E+02</wgt>
<wgt id='3460'>0.79390E+02</wgt>
<wgt id='3461'>0.78773E+02</wgt>
<wgt id='3462'>0.79988E+02</wgt>
<wgt id='3463'>0.78728E+02</wgt>
<wgt id='3464'>0.78510E+02</wgt>
<wgt id='3465'>0.79705E+02</wgt>
<wgt id='3466'>0.80514E+02</wgt>
<wgt id='3467'>0.78298E+02</wgt>
<wgt id='3468'>0.80326E+02</wgt>
<wgt id='3469'>0.77654E+02</wgt>
<wgt id='3470'>0.78105E+02</wgt>
<wgt id='3471'>0.78109E+02</wgt>
<wgt id='3472'>0.77364E+02</wgt>
<wgt id='3473'>0.81148E+02</wgt>
<wgt id='3474'>0.79030E+02</wgt>
<wgt id='3475'>0.79795E+02</wgt>
<wgt id='3476'>0.78423E+02</wgt>
<wgt id='3477'>0.78783E+02</wgt>
<wgt id='3478'>0.80929E+02</wgt>
<wgt id='3479'>0.77100E+02</wgt>
<wgt id='3480'>0.79064E+02</wgt>
<wgt id='3481'>0.79443E+02</wgt>
<wgt id='3482'>0.80572E+02</wgt>
<wgt id='3483'>0.79828E+02</wgt>
<wgt id='3484'>0.79207E+02</wgt>
<wgt id='3485'>0.77887E+02</wgt>
<wgt id='3486'>0.77868E+02</wgt>
<wgt id='3487'>0.78866E+02</wgt>
<wgt id='3488'>0.77724E+02</wgt>
<wgt id='3489'>0.78434E+02</wgt>
<wgt id='3490'>0.81633E+02</wgt>
<wgt id='3491'>0.79596E+02</wgt>
<wgt id='3492'>0.78719E+02</wgt>
<wgt id='3493'>0.80212E+02</wgt>
<wgt id='3494'>0.76733E+02</wgt>
<wgt id='3495'>0.80464E+02</wgt>
<wgt id='3496'>0.78245E+02</wgt>
<wgt id='3497'>0.79395E+02</wgt>
<wgt id='3498'>0.79083E+02</wgt>
<wgt id='3499'>0.79524E+02</wgt>
<wgt id='3500'>0.79811E+02</wgt>
</rwgt>
</event>
<event>
     13 322200  8.11039E+01  6.60409E+01 -1.00000E+00  1.30694E-01
      21    -1     0     0   504   505  0.000000000E+00  0.000000000E+00  2.756135103E+02  2.756135103E+02  0.000000000E+00  0.00000E+00  9.000E+00
      21    -1     0     0   502   503  0.000000000E+00  0.000000000E+00 -6.472785946E+02  6.472785946E+02  0.000000000E+00  0.00000E+00  9.000E+00
       6     2     1     2   502     0 -3.594818176E+01 -1.421204335E+02 -1.060645971E+02  2.501479165E+02  1.727246131E+02  0.00000E+00  9.000E+00
      -6     2     1     2     0   505  5.919588055E+01  2.039342460E+02  1.071947133E+02  2.941445787E+02  1.730231131E+02  0.00000E+00  9.000E+00
      21     1     1     2   504   503 -2.324769880E+01 -6.181381249E+01 -3.727952005E+02  3.785996097E+02  5.394796609E-06  0.00000E+00  9.000E+00
      24     2     3     3     0     0 -1.322166920E+01 -8.182352774E+01  1.600609177E+01  1.120209173E+02  7.363822857E+01  0.00000E+00  9.000E+00
       5     1     3     3   502     0 -2.272651256E+01 -6.029690580E+01 -1.220706889E+02  1.381269992E+02  5.060000000E+00  0.00000E+00 -1.000E+00
     -24     2     4     4     0     0  1.353781201E+01  2.090782608E+02  8.239313306E+01  2.416865756E+02  8.790211009E+01  0.00000E+00  9.000E+00
      -5     1     4     4     0   505  4.565806855E+01 -5.144014742E+00  2.480158026E+01  5.245800315E+01  5.060000000E+00  0.00000E+00  1.000E+00
     -13     1     6     6     0     0  2.812063347E+01 -3.322010482E+01  2.038749920E+01  4.806252893E+01  1.057000000E-01  0.00000E+00  1.000E+00
      14     1     6     6     0     0 -4.134230267E+01 -4.860342292E+01 -4.381407425E+00  6.395838835E+01  0.000000000E+00  0.00000E+00 -1.000E+00
      11     1     8     8     0     0  1.931486484E+01  4.145734552E+01  5.534806626E+01  7.179960961E+01  5.100000000E-04  0.00000E+00 -1.000E+00
     -12     1     8     8     0     0 -5.777052832E+00  1.676209152E+02  2.704506681E+01  1.698869660E+02  0.000000000E+00  0.00000E+00  1.000E+00
#rwgt            1           1   728.60838242752186               10       13595           0
<rwgt>
<wgt id='1001'>0.81104E+02</wgt>
<wgt id='1002'>0.66139E+02</wgt>
<wgt id='1003'>0.97758E+02</wgt>
<wgt id='1004'>0.76015E+02</wgt>
<wgt id='1005'>0.63589E+02</wgt>
<wgt id='1006'>0.89802E+02</wgt>
<wgt id='1007'>0.84756E+02</wgt>
<wgt id='1008'>0.66375E+02</wgt>
<wgt id='1009'>0.10528E+03</wgt>
<wgt id='2000'>0.81104E+02</wgt>
<wgt id='2001'>0.81226E+02</wgt>
<wgt id='2002'>0.80896E+02</wgt>
<wgt id='2003'>0.80998E+02</wgt>
<wgt id='2004'>0.81259E+02</wgt>
<wgt id='2005'>0.81182E+02</wgt>
<wgt id='2006'>0.81292E+02</wgt>
<wgt id='2007'>0.81195E+02</wgt>
<wgt id='2008'>0.81435E+02</wgt>
<wgt id='2009'>0.81015E+02</wgt>
<wgt id='2010'>0.81102E+02</wgt>
<wgt id='2011'>0.80863E+02</wgt>
<wgt id='2012'>0.81232E+02</wgt>
<wgt id='2013'>0.81310E+02</wgt>
<wgt id='2014'>0.81455E+02</wgt>
<wgt id='2015'>0.81311E+02</wgt>
<wgt id='2016'>0.81181E+02</wgt>
<wgt id='2017'>0.81176E+02</wgt>
<wgt id='2018'>0.80813E+02</wgt>
<wgt id='2019'>0.81466E+02</wgt>
<wgt id='2020'>0.80874E+02</wgt>
<wgt id='2021'>0.80958E+02</wgt>
<wgt id='2022'>0.80866E+02</wgt>
<wgt id='2023'>0.81010E+02</wgt>
<wgt id='2024'>0.81088E+02</wgt>
<wgt id='2025'>0.81129E+02</wgt>
<wgt id='2026'>0.80995E+02</wgt>
<wgt id='2027'>0.80783E+02</wgt>
<wgt id='2028'>0.81254E+02</wgt>
<wgt id='2029'>0.80785E+02</wgt>
<wgt id='2030'>0.81054E+02</wgt>
<wgt id='2031'>0.80830E+02</wgt>
<wgt id='2032'>0.81103E+02</wgt>
<wgt id='2033'>0.81011E+02</wgt>
<wgt id='2034'>0.80972E+02</wgt>
<wgt id='2035'>0.81121E+02</wgt>
<wgt id='2036'>0.81273E+02</wgt>
<wgt id='2037'>0.81084E+02</wgt>
<wgt id='2038'>0.81061E+02</wgt>
<wgt id='2039'>0.81102E+02</wgt>
<wgt id='2040'>0.81064E+02</wgt>
<wgt id='2041'>0.81094E+02</wgt>
<wgt id='2042'>0.81140E+02</wgt>
<wgt id='2043'>0.81045E+02</wgt>
<wgt id='2044'>0.81173E+02</wgt>
<wgt id='2045'>0.81118E+02</wgt>
<wgt id='2046'>0.81121E+02</wgt>
<wgt id='2047'>0.81086E+02</wgt>
<wgt id='2048'>0.81067E+02</wgt>
<wgt id='2049'>0.81041E+02</wgt>
<wgt id='2050'>0.81070E+02</wgt>
<wgt id='2051'>0.81098E+02</wgt>
<wgt id='2052'>0.81178E+02</wgt>
<wgt id='2053'>0.81092E+02</wgt>
<wgt id='2054'>0.81101E+02</wgt>
<wgt id='2055'>0.81118E+02</wgt>
<wgt id='2056'>0.81069E+02</wgt>
<wgt id='2057'>0.81135E+02</wgt>
<wgt id='2058'>0.81122E+02</wgt>
<wgt id='2059'>0.81120E+02</wgt>
<wgt id='2060'>0.81108E+02</wgt>
<wgt id='2061'>0.81085E+02</wgt>
<wgt id='2062'>0.81172E+02</wgt>
<wgt id='2063'>0.81125E+02</wgt>
<wgt id='2064'>0.81122E+02</wgt>
<wgt id='2065'>0.81177E+02</wgt>
<wgt id='2066'>0.81102E+02</wgt>
<wgt id='2067'>0.81123E+02</wgt>
<wgt id='2068'>0.81117E+02</wgt>
<wgt id='2069'>0.81111E+02</wgt>
<wgt id='2070'>0.81113E+02</wgt>
<wgt id='2071'>0.81103E+02</wgt>
<wgt id='2072'>0.81107E+02</wgt>
<wgt id='2073'>0.81124E+02</wgt>
<wgt id='2074'>0.81081E+02</wgt>
<wgt id='2075'>0.81090E+02</wgt>
<wgt id='2076'>0.81096E+02</wgt>
<wgt id='2077'>0.81147E+02</wgt>
<wgt id='2078'>0.81116E+02</wgt>
<wgt id='2079'>0.81083E+02</wgt>
<wgt id='2080'>0.81106E+02</wgt>
<wgt id='2081'>0.81092E+02</wgt>
<wgt id='2082'>0.81113E+02</wgt>
<wgt id='2083'>0.81134E+02</wgt>
<wgt id='2084'>0.81111E+02</wgt>
<wgt id='2085'>0.81103E+02</wgt>
<wgt id='2086'>0.81093E+02</wgt>
<wgt id='2087'>0.81114E+02</wgt>
<wgt id='2088'>0.81099E+02</wgt>
<wgt id='2089'>0.81094E+02</wgt>
<wgt id='2090'>0.81121E+02</wgt>
<wgt id='2091'>0.81104E+02</wgt>
<wgt id='2092'>0.81118E+02</wgt>
<wgt id='2093'>0.81089E+02</wgt>
<wgt id='2094'>0.81107E+02</wgt>
<wgt id='2095'>0.81116E+02</wgt>
<wgt id='2096'>0.81094E+02</wgt>
<wgt id='2097'>0.81115E+02</wgt>
<wgt id='2098'>0.81101E+02</wgt>
<wgt id='2099'>0.81116E+02</wgt>
<wgt id='2100'>0.81104E+02</wgt>
<wgt id='2101'>0.79241E+02</wgt>
<wgt id='2102'>0.83008E+02</wgt>
<wgt id='2200'>0.81195E+02</wgt>
<wgt id='2201'>0.72641E+02</wgt>
<wgt id='2202'>0.74257E+02</wgt>
<wgt id='2203'>0.76277E+02</wgt>
<wgt id='2204'>0.77981E+02</wgt>
<wgt id='2205'>0.80402E+02</wgt>
<wgt id='2206'>0.82210E+02</wgt>
<wgt id='2207'>0.84344E+02</wgt>
<wgt id='2208'>0.86086E+02</wgt>
<wgt id='2300'>0.84272E+02</wgt>
<wgt id='2301'>0.84326E+02</wgt>
<wgt id='2302'>0.84277E+02</wgt>
<wgt id='2303'>0.84309E+02</wgt>
<wgt id='2304'>0.84433E+02</wgt>
<wgt id='2305'>0.84431E+02</wgt>
<wgt id='2306'>0.84234E+02</wgt>
<wgt id='2307'>0.84502E+02</wgt>
<wgt id='2308'>0.84243E+02</wgt>
<wgt id='2309'>0.84531E+02</wgt>
<wgt id='2310'>0.84163E+02</wgt>
<wgt id='2311'>0.84103E+02</wgt>
<wgt id='2312'>0.84357E+02</wgt>
<wgt id='2313'>0.84388E+02</wgt>
<wgt id='2314'>0.84389E+02</wgt>
<wgt id='2315'>0.84084E+02</wgt>
<wgt id='2316'>0.84318E+02</wgt>
<wgt id='2317'>0.84364E+02</wgt>
<wgt id='2318'>0.84503E+02</wgt>
<wgt id='2319'>0.84094E+02</wgt>
<wgt id='2320'>0.84006E+02</wgt>
<wgt id='2321'>0.83964E+02</wgt>
<wgt id='2322'>0.84256E+02</wgt>
<wgt id='2323'>0.84057E+02</wgt>
<wgt id='2324'>0.83910E+02</wgt>
<wgt id='2325'>0.84302E+02</wgt>
<wgt id='2326'>0.84509E+02</wgt>
<wgt id='2327'>0.84294E+02</wgt>
<wgt id='2328'>0.83842E+02</wgt>
<wgt id='2329'>0.84067E+02</wgt>
<wgt id='2330'>0.84527E+02</wgt>
<wgt id='2331'>0.84399E+02</wgt>
<wgt id='2332'>0.84439E+02</wgt>
<wgt id='2333'>0.84485E+02</wgt>
<wgt id='2334'>0.84352E+02</wgt>
<wgt id='2335'>0.84444E+02</wgt>
<wgt id='2336'>0.84318E+02</wgt>
<wgt id='2337'>0.84283E+02</wgt>
<wgt id='2338'>0.84285E+02</wgt>
<wgt id='2339'>0.84182E+02</wgt>
<wgt id='2340'>0.84309E+02</wgt>
<wgt id='2341'>0.84344E+02</wgt>
<wgt id='2342'>0.84144E+02</wgt>
<wgt id='2343'>0.84158E+02</wgt>
<wgt id='2344'>0.84290E+02</wgt>
<wgt id='2345'>0.84354E+02</wgt>
<wgt id='2346'>0.84345E+02</wgt>
<wgt id='2347'>0.84246E+02</wgt>
<wgt id='2348'>0.84349E+02</wgt>
<wgt id='2349'>0.84255E+02</wgt>
<wgt id='2350'>0.84272E+02</wgt>
<wgt id='2351'>0.84400E+02</wgt>
<wgt id='2352'>0.84239E+02</wgt>
<wgt id='2353'>0.84242E+02</wgt>
<wgt id='2354'>0.84253E+02</wgt>
<wgt id='2355'>0.84247E+02</wgt>
<wgt id='2356'>0.84288E+02</wgt>
<wgt id='2357'>0.84219E+02</wgt>
<wgt id='2358'>0.84238E+02</wgt>
<wgt id='2359'>0.84266E+02</wgt>
<wgt id='2360'>0.84289E+02</wgt>
<wgt id='2361'>0.84285E+02</wgt>
<wgt id='2362'>0.84275E+02</wgt>
<wgt id='2363'>0.84304E+02</wgt>
<wgt id='2364'>0.84258E+02</wgt>
<wgt id='2365'>0.84287E+02</wgt>
<wgt id='2366'>0.84286E+02</wgt>
<wgt id='2367'>0.84243E+02</wgt>
<wgt id='2368'>0.84269E+02</wgt>
<wgt id='2369'>0.84235E+02</wgt>
<wgt id='2370'>0.84260E+02</wgt>
<wgt id='2371'>0.84275E+02</wgt>
<wgt id='2372'>0.84291E+02</wgt>
<wgt id='2373'>0.84265E+02</wgt>
<wgt id='2374'>0.84311E+02</wgt>
<wgt id='2375'>0.84288E+02</wgt>
<wgt id='2376'>0.84274E+02</wgt>
<wgt id='2377'>0.84270E+02</wgt>
<wgt id='2378'>0.84297E+02</wgt>
<wgt id='2379'>0.84251E+02</wgt>
<wgt id='2380'>0.84255E+02</wgt>
<wgt id='2381'>0.84262E+02</wgt>
<wgt id='2382'>0.84254E+02</wgt>
<wgt id='2383'>0.84279E+02</wgt>
<wgt id='2384'>0.84264E+02</wgt>
<wgt id='2385'>0.84288E+02</wgt>
<wgt id='2386'>0.84281E+02</wgt>
<wgt id='2387'>0.84267E+02</wgt>
<wgt id='2388'>0.84260E+02</wgt>
<wgt id='2389'>0.84275E+02</wgt>
<wgt id='2390'>0.84280E+02</wgt>
<wgt id='2391'>0.84268E+02</wgt>
<wgt id='2392'>0.84262E+02</wgt>
<wgt id='2393'>0.84276E+02</wgt>
<wgt id='2394'>0.84290E+02</wgt>
<wgt id='2395'>0.84276E+02</wgt>
<wgt id='2396'>0.84254E+02</wgt>
<wgt id='2397'>0.84254E+02</wgt>
<wgt id='2398'>0.84257E+02</wgt>
<wgt id='2399'>0.84283E+02</wgt>
<wgt id='2400'>0.84281E+02</wgt>
<wgt id='2401'>0.82379E+02</wgt>
<wgt id='2402'>0.86151E+02</wgt>
<wgt id='2500'>0.81130E+02</wgt>
<wgt id='2501'>0.85660E+02</wgt>
<wgt id='2600'>0.78146E+02</wgt>
<wgt id='2601'>0.78184E+02</wgt>
<wgt id='2602'>0.78028E+02</wgt>
<wgt id='2603'>0.78105E+02</wgt>
<wgt id='2604'>0.78152E+02</wgt>
<wgt id='2605'>0.78026E+02</wgt>
<wgt id='2606'>0.77968E+02</wgt>
<wgt id='2607'>0.78246E+02</wgt>
<wgt id='2608'>0.78061E+02</wgt>
<wgt id='2609'>0.78056E+02</wgt>
<wgt id='2610'>0.78101E+02</wgt>
<wgt id='2611'>0.78058E+02</wgt>
<wgt id='2612'>0.78503E+02</wgt>
<wgt id='2613'>0.78101E+02</wgt>
<wgt id='2614'>0.78128E+02</wgt>
<wgt id='2615'>0.77989E+02</wgt>
<wgt id='2616'>0.78102E+02</wgt>
<wgt id='2617'>0.77994E+02</wgt>
<wgt id='2618'>0.77908E+02</wgt>
<wgt id='2619'>0.78198E+02</wgt>
<wgt id='2620'>0.78184E+02</wgt>
<wgt id='2621'>0.78105E+02</wgt>
<wgt id='2622'>0.78210E+02</wgt>
<wgt id='2623'>0.78143E+02</wgt>
<wgt id='2624'>0.78165E+02</wgt>
<wgt id='2625'>0.78070E+02</wgt>
<wgt id='2626'>0.78130E+02</wgt>
<wgt id='2627'>0.78097E+02</wgt>
<wgt id='2628'>0.78169E+02</wgt>
<wgt id='2629'>0.78142E+02</wgt>
<wgt id='2630'>0.78121E+02</wgt>
<wgt id='2631'>0.78162E+02</wgt>
<wgt id='2632'>0.78147E+02</wgt>
<wgt id='2633'>0.78154E+02</wgt>
<wgt id='2634'>0.78169E+02</wgt>
<wgt id='2635'>0.78136E+02</wgt>
<wgt id='2636'>0.78139E+02</wgt>
<wgt id='2637'>0.78139E+02</wgt>
<wgt id='2638'>0.78143E+02</wgt>
<wgt id='2639'>0.78144E+02</wgt>
<wgt id='2640'>0.78150E+02</wgt>
<wgt id='2641'>0.78141E+02</wgt>
<wgt id='2642'>0.78143E+02</wgt>
<wgt id='2643'>0.78154E+02</wgt>
<wgt id='2644'>0.78146E+02</wgt>
<wgt id='2645'>0.78142E+02</wgt>
<wgt id='2646'>0.78124E+02</wgt>
<wgt id='2647'>0.78152E+02</wgt>
<wgt id='2648'>0.78149E+02</wgt>
<wgt id='2649'>0.78151E+02</wgt>
<wgt id='2650'>0.78149E+02</wgt>
<wgt id='2651'>0.76948E+02</wgt>
<wgt id='2652'>0.79265E+02</wgt>
<wgt id='2700'>0.75789E+02</wgt>
<wgt id='2701'>0.76948E+02</wgt>
<wgt id='2702'>0.77588E+02</wgt>
<wgt id='2703'>0.78585E+02</wgt>
<wgt id='2704'>0.79265E+02</wgt>
<wgt id='2705'>0.80270E+02</wgt>
<wgt id='2800'>0.79069E+02</wgt>
<wgt id='4000'>0.79692E+02</wgt>
<wgt id='4001'>0.80078E+02</wgt>
<wgt id='4002'>0.79596E+02</wgt>
<wgt id='4003'>0.80199E+02</wgt>
<wgt id='4004'>0.79165E+02</wgt>
<wgt id='4005'>0.79334E+02</wgt>
<wgt id='4006'>0.80039E+02</wgt>
<wgt id='4007'>0.80695E+02</wgt>
<wgt id='4008'>0.78709E+02</wgt>
<wgt id='4009'>0.80283E+02</wgt>
<wgt id='4010'>0.79195E+02</wgt>
<wgt id='4011'>0.79967E+02</wgt>
<wgt id='4012'>0.79447E+02</wgt>
<wgt id='4013'>0.80396E+02</wgt>
<wgt id='4014'>0.79067E+02</wgt>
<wgt id='4015'>0.79306E+02</wgt>
<wgt id='4016'>0.80002E+02</wgt>
<wgt id='4017'>0.79596E+02</wgt>
<wgt id='4018'>0.79838E+02</wgt>
<wgt id='4019'>0.80304E+02</wgt>
<wgt id='4020'>0.78770E+02</wgt>
<wgt id='4021'>0.79770E+02</wgt>
<wgt id='4022'>0.79532E+02</wgt>
<wgt id='4023'>0.79541E+02</wgt>
<wgt id='4024'>0.79875E+02</wgt>
<wgt id='4025'>0.79945E+02</wgt>
<wgt id='4026'>0.79077E+02</wgt>
<wgt id='4027'>0.79554E+02</wgt>
<wgt id='4028'>0.79874E+02</wgt>
<wgt id='4029'>0.78839E+02</wgt>
<wgt id='4030'>0.79789E+02</wgt>
<wgt id='4031'>0.79500E+02</wgt>
<wgt id='4032'>0.79694E+02</wgt>
<wgt id='4033'>0.79675E+02</wgt>
<wgt id='4034'>0.79449E+02</wgt>
<wgt id='4035'>0.80894E+02</wgt>
<wgt id='4036'>0.78778E+02</wgt>
<wgt id='4037'>0.80934E+02</wgt>
<wgt id='4038'>0.78697E+02</wgt>
<wgt id='4039'>0.80992E+02</wgt>
<wgt id='4040'>0.78342E+02</wgt>
<wgt id='4041'>0.79518E+02</wgt>
<wgt id='4042'>0.79741E+02</wgt>
<wgt id='4043'>0.78555E+02</wgt>
<wgt id='4044'>0.80062E+02</wgt>
<wgt id='4045'>0.81408E+02</wgt>
<wgt id='4046'>0.78909E+02</wgt>
<wgt id='4047'>0.78591E+02</wgt>
<wgt id='4048'>0.80172E+02</wgt>
<wgt id='4049'>0.79578E+02</wgt>
<wgt id='4050'>0.79772E+02</wgt>
<wgt id='4051'>0.80760E+02</wgt>
<wgt id='4052'>0.78696E+02</wgt>
<wgt id='4053'>0.80561E+02</wgt>
<wgt id='4054'>0.78479E+02</wgt>
<wgt id='4055'>0.80115E+02</wgt>
<wgt id='4056'>0.79215E+02</wgt>
<wgt id='4057'>0.78870E+02</wgt>
<wgt id='4058'>0.80221E+02</wgt>
<wgt id='4100'>0.80232E+02</wgt>
<wgt id='4101'>0.79985E+02</wgt>
<wgt id='4102'>0.79359E+02</wgt>
<wgt id='4103'>0.78996E+02</wgt>
<wgt id='4200'>0.76252E+02</wgt>
<wgt id='4201'>0.76392E+02</wgt>
<wgt id='4202'>0.76377E+02</wgt>
<wgt id='4203'>0.75565E+02</wgt>
<wgt id='4204'>0.76814E+02</wgt>
<wgt id='4205'>0.76175E+02</wgt>
<wgt id='4206'>0.76464E+02</wgt>
<wgt id='4207'>0.76070E+02</wgt>
<wgt id='4208'>0.76426E+02</wgt>
<wgt id='4209'>0.76503E+02</wgt>
<wgt id='4210'>0.76223E+02</wgt>
<wgt id='4211'>0.77292E+02</wgt>
<wgt id='4212'>0.75444E+02</wgt>
<wgt id='4213'>0.76427E+02</wgt>
<wgt id='4214'>0.75987E+02</wgt>
<wgt id='4215'>0.76382E+02</wgt>
<wgt id='4216'>0.75864E+02</wgt>
<wgt id='4217'>0.75868E+02</wgt>
<wgt id='4218'>0.76546E+02</wgt>
<wgt id='4219'>0.75071E+02</wgt>
<wgt id='4220'>0.77346E+02</wgt>
<wgt id='4221'>0.75662E+02</wgt>
<wgt id='4222'>0.76971E+02</wgt>
<wgt id='4223'>0.76813E+02</wgt>
<wgt id='4224'>0.75454E+02</wgt>
<wgt id='4225'>0.74793E+02</wgt>
<wgt id='4226'>0.77641E+02</wgt>
<wgt id='4227'>0.76887E+02</wgt>
<wgt id='4228'>0.75720E+02</wgt>
<wgt id='4229'>0.75525E+02</wgt>
<wgt id='4230'>0.76738E+02</wgt>
<wgt id='4231'>0.76295E+02</wgt>
<wgt id='4232'>0.76125E+02</wgt>
<wgt id='4233'>0.76557E+02</wgt>
<wgt id='4234'>0.75747E+02</wgt>
<wgt id='4235'>0.76624E+02</wgt>
<wgt id='4236'>0.75965E+02</wgt>
<wgt id='4237'>0.76274E+02</wgt>
<wgt id='4238'>0.75983E+02</wgt>
<wgt id='4239'>0.76920E+02</wgt>
<wgt id='4240'>0.74803E+02</wgt>
<wgt id='4241'>0.75872E+02</wgt>
<wgt id='4242'>0.76653E+02</wgt>
<wgt id='4243'>0.76169E+02</wgt>
<wgt id='4244'>0.76610E+02</wgt>
<wgt id='4245'>0.75424E+02</wgt>
<wgt id='4246'>0.77029E+02</wgt>
<wgt id='4247'>0.75998E+02</wgt>
<wgt id='4248'>0.76344E+02</wgt>
<wgt id='4249'>0.77482E+02</wgt>
<wgt id='4250'>0.74833E+02</wgt>
<wgt id='4251'>0.75555E+02</wgt>
<wgt id='4252'>0.76620E+02</wgt>
<wgt id='4253'>0.75936E+02</wgt>
<wgt id='4254'>0.76428E+02</wgt>
<wgt id='4255'>0.76488E+02</wgt>
<wgt id='4256'>0.76027E+02</wgt>
<wgt id='4257'>0.74827E+02</wgt>
<wgt id='4258'>0.76658E+02</wgt>
<wgt id='4300'>0.78946E+02</wgt>
<wgt id='4301'>0.77728E+02</wgt>
<wgt id='5000'>0.79073E+02</wgt>
<wgt id='5001'>0.79111E+02</wgt>
<wgt id='5002'>0.79024E+02</wgt>
<wgt id='5003'>0.79091E+02</wgt>
<wgt id='5004'>0.79057E+02</wgt>
<wgt id='5005'>0.79080E+02</wgt>
<wgt id='5006'>0.79062E+02</wgt>
<wgt id='5007'>0.79125E+02</wgt>
<wgt id='5008'>0.79031E+02</wgt>
<wgt id='5009'>0.79190E+02</wgt>
<wgt id='5010'>0.78953E+02</wgt>
<wgt id='5011'>0.79234E+02</wgt>
<wgt id='5012'>0.78918E+02</wgt>
<wgt id='5013'>0.79207E+02</wgt>
<wgt id='5014'>0.78978E+02</wgt>
<wgt id='5015'>0.78686E+02</wgt>
<wgt id='5016'>0.78686E+02</wgt>
<wgt id='5017'>0.79500E+02</wgt>
<wgt id='5018'>0.78785E+02</wgt>
<wgt id='5019'>0.79359E+02</wgt>
<wgt id='5020'>0.78682E+02</wgt>
<wgt id='5021'>0.79153E+02</wgt>
<wgt id='5022'>0.78950E+02</wgt>
<wgt id='5023'>0.78993E+02</wgt>
<wgt id='5024'>0.79266E+02</wgt>
<wgt id='5025'>0.78811E+02</wgt>
<wgt id='5026'>0.79367E+02</wgt>
<wgt id='5027'>0.79114E+02</wgt>
<wgt id='5028'>0.78964E+02</wgt>
<wgt id='5029'>0.79785E+02</wgt>
<wgt id='5030'>0.78671E+02</wgt>
<wgt id='5031'>0.78708E+02</wgt>
<wgt id='5032'>0.80185E+02</wgt>
<wgt id='5033'>0.79066E+02</wgt>
<wgt id='5034'>0.79081E+02</wgt>
<wgt id='5035'>0.79078E+02</wgt>
<wgt id='5036'>0.79068E+02</wgt>
<wgt id='5037'>0.78942E+02</wgt>
<wgt id='5038'>0.79148E+02</wgt>
<wgt id='5039'>0.79278E+02</wgt>
<wgt id='5040'>0.78565E+02</wgt>
<wgt id='5041'>0.79268E+02</wgt>
<wgt id='5042'>0.78873E+02</wgt>
<wgt id='5043'>0.79211E+02</wgt>
<wgt id='5044'>0.78989E+02</wgt>
<wgt id='5045'>0.78863E+02</wgt>
<wgt id='5046'>0.79492E+02</wgt>
<wgt id='5047'>0.79113E+02</wgt>
<wgt id='5048'>0.78895E+02</wgt>
<wgt id='5049'>0.79051E+02</wgt>
<wgt id='5050'>0.79134E+02</wgt>
<wgt id='5051'>0.79193E+02</wgt>
<wgt id='5052'>0.78971E+02</wgt>
<wgt id='5053'>0.78997E+02</wgt>
<wgt id='5054'>0.79215E+02</wgt>
<wgt id='5055'>0.79115E+02</wgt>
<wgt id='5056'>0.79105E+02</wgt>
<wgt id='5057'>0.78826E+02</wgt>
<wgt id='5058'>0.79247E+02</wgt>
<wgt id='5059'>0.79058E+02</wgt>
<wgt id='5060'>0.79091E+02</wgt>
<wgt id='5061'>0.79363E+02</wgt>
<wgt id='5062'>0.79081E+02</wgt>
<wgt id='5063'>0.79381E+02</wgt>
<wgt id='5064'>0.78996E+02</wgt>
<wgt id='5100'>0.79073E+02</wgt>
<wgt id='5101'>0.79091E+02</wgt>
<wgt id='6000'>0.79425E+02</wgt>
<wgt id='6001'>0.79609E+02</wgt>
<wgt id='6002'>0.79477E+02</wgt>
<wgt id='6003'>0.79394E+02</wgt>
<wgt id='6004'>0.79413E+02</wgt>
<wgt id='6005'>0.79305E+02</wgt>
<wgt id='6006'>0.79724E+02</wgt>
<wgt id='6007'>0.79287E+02</wgt>
<wgt id='6008'>0.78918E+02</wgt>
<wgt id='6009'>0.79752E+02</wgt>
<wgt id='6010'>0.78268E+02</wgt>
<wgt id='6011'>0.79395E+02</wgt>
<wgt id='6012'>0.79700E+02</wgt>
<wgt id='6013'>0.79224E+02</wgt>
<wgt id='6014'>0.79370E+02</wgt>
<wgt id='6015'>0.78881E+02</wgt>
<wgt id='6016'>0.79490E+02</wgt>
<wgt id='6017'>0.79457E+02</wgt>
<wgt id='6018'>0.79299E+02</wgt>
<wgt id='6019'>0.79486E+02</wgt>
<wgt id='6020'>0.79609E+02</wgt>
<wgt id='6021'>0.79524E+02</wgt>
<wgt id='6022'>0.79425E+02</wgt>
<wgt id='6023'>0.79467E+02</wgt>
<wgt id='6024'>0.79504E+02</wgt>
<wgt id='6025'>0.79666E+02</wgt>
<wgt id='6026'>0.79481E+02</wgt>
<wgt id='6027'>0.79455E+02</wgt>
<wgt id='6028'>0.79284E+02</wgt>
<wgt id='6029'>0.79263E+02</wgt>
<wgt id='6030'>0.80179E+02</wgt>
<wgt id='6031'>0.79260E+02</wgt>
<wgt id='6032'>0.79460E+02</wgt>
<wgt id='6033'>0.79306E+02</wgt>
<wgt id='6034'>0.79641E+02</wgt>
<wgt id='6035'>0.79473E+02</wgt>
<wgt id='6036'>0.79855E+02</wgt>
<wgt id='6037'>0.79440E+02</wgt>
<wgt id='6038'>0.79493E+02</wgt>
<wgt id='6039'>0.79566E+02</wgt>
<wgt id='6040'>0.79412E+02</wgt>
<wgt id='6041'>0.78097E+02</wgt>
<wgt id='6042'>0.79645E+02</wgt>
<wgt id='7000'>0.78831E+02</wgt>
<wgt id='7001'>0.77945E+02</wgt>
<wgt id='7002'>0.78112E+02</wgt>
<wgt id='7003'>0.77993E+02</wgt>
<wgt id='7004'>0.78065E+02</wgt>
<wgt id='7005'>0.78127E+02</wgt>
<wgt id='7006'>0.77931E+02</wgt>
<wgt id='7007'>0.78518E+02</wgt>
<wgt id='7008'>0.77554E+02</wgt>
<wgt id='7009'>0.77697E+02</wgt>
<wgt id='7010'>0.78373E+02</wgt>
<wgt id='7011'>0.78297E+02</wgt>
<wgt id='7012'>0.77764E+02</wgt>
<wgt id='7013'>0.77905E+02</wgt>
<wgt id='7014'>0.78144E+02</wgt>
<wgt id='7015'>0.77924E+02</wgt>
<wgt id='7016'>0.77899E+02</wgt>
<wgt id='7017'>0.78061E+02</wgt>
<wgt id='7018'>0.78001E+02</wgt>
<wgt id='7019'>0.77863E+02</wgt>
<wgt id='7020'>0.78205E+02</wgt>
<wgt id='7021'>0.78123E+02</wgt>
<wgt id='7022'>0.77925E+02</wgt>
<wgt id='7023'>0.77753E+02</wgt>
<wgt id='7024'>0.78321E+02</wgt>
<wgt id='7025'>0.77154E+02</wgt>
<wgt id='7026'>0.78847E+02</wgt>
<wgt id='7027'>0.77685E+02</wgt>
<wgt id='7028'>0.78418E+02</wgt>
<wgt id='8000'>0.79083E+02</wgt>
<wgt id='8001'>0.79076E+02</wgt>
<wgt id='8002'>0.79106E+02</wgt>
<wgt id='8003'>0.79085E+02</wgt>
<wgt id='8004'>0.79081E+02</wgt>
<wgt id='8005'>0.78947E+02</wgt>
<wgt id='8006'>0.79166E+02</wgt>
<wgt id='8007'>0.79250E+02</wgt>
<wgt id='8008'>0.79258E+02</wgt>
<wgt id='8009'>0.79407E+02</wgt>
<wgt id='8010'>0.78992E+02</wgt>
<wgt id='8011'>0.79097E+02</wgt>
<wgt id='8012'>0.78781E+02</wgt>
<wgt id='8013'>0.78929E+02</wgt>
<wgt id='8014'>0.79275E+02</wgt>
<wgt id='8015'>0.79041E+02</wgt>
<wgt id='8016'>0.79153E+02</wgt>
<wgt id='8017'>0.79133E+02</wgt>
<wgt id='8018'>0.79270E+02</wgt>
<wgt id='8019'>0.79161E+02</wgt>
<wgt id='8020'>0.79007E+02</wgt>
<wgt id='8021'>0.79025E+02</wgt>
<wgt id='8022'>0.78938E+02</wgt>
<wgt id='8023'>0.79024E+02</wgt>
<wgt id='8024'>0.78881E+02</wgt>
<wgt id='8025'>0.79084E+02</wgt>
<wgt id='8026'>0.79196E+02</wgt>
<wgt id='8027'>0.79122E+02</wgt>
<wgt id='8028'>0.79141E+02</wgt>
<wgt id='8029'>0.78847E+02</wgt>
<wgt id='3000'>0.81104E+02</wgt>
<wgt id='3001'>0.81326E+02</wgt>
<wgt id='3002'>0.80349E+02</wgt>
<wgt id='3003'>0.83504E+02</wgt>
<wgt id='3004'>0.81797E+02</wgt>
<wgt id='3005'>0.80342E+02</wgt>
<wgt id='3006'>0.84305E+02</wgt>
<wgt id='3007'>0.80784E+02</wgt>
<wgt id='3008'>0.80041E+02</wgt>
<wgt id='3009'>0.81967E+02</wgt>
<wgt id='3010'>0.82655E+02</wgt>
<wgt id='3011'>0.83048E+02</wgt>
<wgt id='3012'>0.81973E+02</wgt>
<wgt id='3013'>0.80153E+02</wgt>
<wgt id='3014'>0.80489E+02</wgt>
<wgt id='3015'>0.80671E+02</wgt>
<wgt id='3016'>0.82019E+02</wgt>
<wgt id='3017'>0.82494E+02</wgt>
<wgt id='3018'>0.81207E+02</wgt>
<wgt id='3019'>0.78957E+02</wgt>
<wgt id='3020'>0.79902E+02</wgt>
<wgt id='3021'>0.79581E+02</wgt>
<wgt id='3022'>0.78713E+02</wgt>
<wgt id='3023'>0.79258E+02</wgt>
<wgt id='3024'>0.79616E+02</wgt>
<wgt id='3025'>0.79632E+02</wgt>
<wgt id='3026'>0.80413E+02</wgt>
<wgt id='3027'>0.79280E+02</wgt>
<wgt id='3028'>0.82284E+02</wgt>
<wgt id='3029'>0.82175E+02</wgt>
<wgt id='3030'>0.82894E+02</wgt>
<wgt id='3031'>0.82190E+02</wgt>
<wgt id='3032'>0.82917E+02</wgt>
<wgt id='3033'>0.80150E+02</wgt>
<wgt id='3034'>0.81186E+02</wgt>
<wgt id='3035'>0.82024E+02</wgt>
<wgt id='3036'>0.81216E+02</wgt>
<wgt id='3037'>0.81433E+02</wgt>
<wgt id='3038'>0.80875E+02</wgt>
<wgt id='3039'>0.81567E+02</wgt>
<wgt id='3040'>0.80830E+02</wgt>
<wgt id='3041'>0.81015E+02</wgt>
<wgt id='3042'>0.81097E+02</wgt>
<wgt id='3043'>0.80922E+02</wgt>
<wgt id='3044'>0.80861E+02</wgt>
<wgt id='3045'>0.80977E+02</wgt>
<wgt id='3046'>0.81641E+02</wgt>
<wgt id='3047'>0.80834E+02</wgt>
<wgt id='3048'>0.79420E+02</wgt>
<wgt id='3049'>0.81799E+02</wgt>
<wgt id='3050'>0.82751E+02</wgt>
<wgt id='3051'>0.81607E+02</wgt>
<wgt id='3052'>0.79986E+02</wgt>
<wgt id='3053'>0.80433E+02</wgt>
<wgt id='3054'>0.81846E+02</wgt>
<wgt id='3055'>0.79384E+02</wgt>
<wgt id='3056'>0.80614E+02</wgt>
<wgt id='3057'>0.80600E+02</wgt>
<wgt id='3058'>0.79268E+02</wgt>
<wgt id='3059'>0.81962E+02</wgt>
<wgt id='3060'>0.81568E+02</wgt>
<wgt id='3061'>0.81260E+02</wgt>
<wgt id='3062'>0.80874E+02</wgt>
<wgt id='3063'>0.78740E+02</wgt>
<wgt id='3064'>0.80601E+02</wgt>
<wgt id='3065'>0.80328E+02</wgt>
<wgt id='3066'>0.81373E+02</wgt>
<wgt id='3067'>0.79691E+02</wgt>
<wgt id='3068'>0.81635E+02</wgt>
<wgt id='3069'>0.80719E+02</wgt>
<wgt id='3070'>0.80000E+02</wgt>
<wgt id='3071'>0.82045E+02</wgt>
<wgt id='3072'>0.80629E+02</wgt>
<wgt id='3073'>0.81806E+02</wgt>
<wgt id='3074'>0.81752E+02</wgt>
<wgt id='3075'>0.82446E+02</wgt>
<wgt id='3076'>0.82471E+02</wgt>
<wgt id='3077'>0.79908E+02</wgt>
<wgt id='3078'>0.82143E+02</wgt>
<wgt id='3079'>0.80637E+02</wgt>
<wgt id='3080'>0.81376E+02</wgt>
<wgt id='3081'>0.79492E+02</wgt>
<wgt id='3082'>0.82019E+02</wgt>
<wgt id='3083'>0.81214E+02</wgt>
<wgt id='3084'>0.80820E+02</wgt>
<wgt id='3085'>0.84039E+02</wgt>
<wgt id='3086'>0.80119E+02</wgt>
<wgt id='3087'>0.81914E+02</wgt>
<wgt id='3088'>0.82790E+02</wgt>
<wgt id='3089'>0.83282E+02</wgt>
<wgt id='3090'>0.81391E+02</wgt>
<wgt id='3091'>0.80326E+02</wgt>
<wgt id='3092'>0.82031E+02</wgt>
<wgt id='3093'>0.81318E+02</wgt>
<wgt id='3094'>0.81014E+02</wgt>
<wgt id='3095'>0.81449E+02</wgt>
<wgt id='3096'>0.80210E+02</wgt>
<wgt id='3097'>0.80186E+02</wgt>
<wgt id='3098'>0.81788E+02</wgt>
<wgt id='3099'>0.79930E+02</wgt>
<wgt id='3100'>0.80226E+02</wgt>
<wgt id='3200'>0.78167E+02</wgt>
<wgt id='3201'>0.78761E+02</wgt>
<wgt id='3202'>0.77218E+02</wgt>
<wgt id='3203'>0.78185E+02</wgt>
<wgt id='3204'>0.77531E+02</wgt>
<wgt id='3205'>0.78962E+02</wgt>
<wgt id='3206'>0.78563E+02</wgt>
<wgt id='3207'>0.78907E+02</wgt>
<wgt id='3208'>0.78612E+02</wgt>
<wgt id='3209'>0.77976E+02</wgt>
<wgt id='3210'>0.78060E+02</wgt>
<wgt id='3211'>0.78704E+02</wgt>
<wgt id='3212'>0.77045E+02</wgt>
<wgt id='3213'>0.78048E+02</wgt>
<wgt id='3214'>0.77747E+02</wgt>
<wgt id='3215'>0.78209E+02</wgt>
<wgt id='3216'>0.79051E+02</wgt>
<wgt id='3217'>0.78503E+02</wgt>
<wgt id='3218'>0.78111E+02</wgt>
<wgt id='3219'>0.77892E+02</wgt>
<wgt id='3220'>0.77805E+02</wgt>
<wgt id='3221'>0.78944E+02</wgt>
<wgt id='3222'>0.79417E+02</wgt>
<wgt id='3223'>0.77696E+02</wgt>
<wgt id='3224'>0.78030E+02</wgt>
<wgt id='3225'>0.78743E+02</wgt>
<wgt id='3226'>0.78558E+02</wgt>
<wgt id='3227'>0.77695E+02</wgt>
<wgt id='3228'>0.77741E+02</wgt>
<wgt id='3229'>0.78461E+02</wgt>
<wgt id='3230'>0.78697E+02</wgt>
<wgt id='3231'>0.78452E+02</wgt>
<wgt id='3232'>0.78567E+02</wgt>
<wgt id='3233'>0.78895E+02</wgt>
<wgt id='3234'>0.78149E+02</wgt>
<wgt id='3235'>0.77425E+02</wgt>
<wgt id='3236'>0.77198E+02</wgt>
<wgt id='3237'>0.77779E+02</wgt>
<wgt id='3238'>0.78147E+02</wgt>
<wgt id='3239'>0.77743E+02</wgt>
<wgt id='3240'>0.77928E+02</wgt>
<wgt id='3241'>0.78817E+02</wgt>
<wgt id='3242'>0.77600E+02</wgt>
<wgt id='3243'>0.77139E+02</wgt>
<wgt id='3244'>0.77926E+02</wgt>
<wgt id='3245'>0.78435E+02</wgt>
<wgt id='3246'>0.77685E+02</wgt>
<wgt id='3247'>0.78358E+02</wgt>
<wgt id='3248'>0.77977E+02</wgt>
<wgt id='3249'>0.77826E+02</wgt>
<wgt id='3250'>0.78500E+02</wgt>
<wgt id='3251'>0.78176E+02</wgt>
<wgt id='3252'>0.78359E+02</wgt>
<wgt id='3253'>0.77968E+02</wgt>
<wgt id='3254'>0.77822E+02</wgt>
<wgt id='3255'>0.78093E+02</wgt>
<wgt id='3256'>0.77596E+02</wgt>
<wgt id='3257'>0.77921E+02</wgt>
<wgt id='3258'>0.78565E+02</wgt>
<wgt id='3259'>0.78624E+02</wgt>
<wgt id='3260'>0.78500E+02</wgt>
<wgt id='3261'>0.78981E+02</wgt>
<wgt id='3262'>0.77742E+02</wgt>
<wgt id='3263'>0.78945E+02</wgt>
<wgt id='3264'>0.78352E+02</wgt>
<wgt id='3265'>0.78172E+02</wgt>
<wgt id='3266'>0.77779E+02</wgt>
<wgt id='3267'>0.77867E+02</wgt>
<wgt id='3268'>0.78865E+02</wgt>
<wgt id='3269'>0.78323E+02</wgt>
<wgt id='3270'>0.78002E+02</wgt>
<wgt id='3271'>0.78230E+02</wgt>
<wgt id='3272'>0.78623E+02</wgt>
<wgt id='3273'>0.78033E+02</wgt>
<wgt id='3274'>0.78550E+02</wgt>
<wgt id='3275'>0.78420E+02</wgt>
<wgt id='3276'>0.77643E+02</wgt>
<wgt id='3277'>0.77327E+02</wgt>
<wgt id='3278'>0.77960E+02</wgt>
<wgt id='3279'>0.78978E+02</wgt>
<wgt id='3280'>0.78016E+02</wgt>
<wgt id='3281'>0.78435E+02</wgt>
<wgt id='3282'>0.78518E+02</wgt>
<wgt id='3283'>0.78538E+02</wgt>
<wgt id='3284'>0.78345E+02</wgt>
<wgt id='3285'>0.77431E+02</wgt>
<wgt id='3286'>0.78002E+02</wgt>
<wgt id='3287'>0.77688E+02</wgt>
<wgt id='3288'>0.78472E+02</wgt>
<wgt id='3289'>0.79128E+02</wgt>
<wgt id='3290'>0.79531E+02</wgt>
<wgt id='3291'>0.76754E+02</wgt>
<wgt id='3292'>0.77048E+02</wgt>
<wgt id='3293'>0.78021E+02</wgt>
<wgt id='3294'>0.76588E+02</wgt>
<wgt id='3295'>0.77628E+02</wgt>
<wgt id='3296'>0.79447E+02</wgt>
<wgt id='3297'>0.77758E+02</wgt>
<wgt id='3298'>0.78212E+02</wgt>
<wgt id='3299'>0.77671E+02</wgt>
<wgt id='3300'>0.78734E+02</wgt>
<wgt id='3301'>0.76948E+02</wgt>
<wgt id='3302'>0.79265E+02</wgt>
<wgt id='3400'>0.78629E+02</wgt>
<wgt id='3401'>0.78718E+02</wgt>
<wgt id='3402'>0.78246E+02</wgt>
<wgt id='3403'>0.79367E+02</wgt>
<wgt id='3404'>0.79662E+02</wgt>
<wgt id='3405'>0.79608E+02</wgt>
<wgt id='3406'>0.78279E+02</wgt>
<wgt id='3407'>0.77837E+02</wgt>
<wgt id='3408'>0.80021E+02</wgt>
<wgt id='3409'>0.79771E+02</wgt>
<wgt id='3410'>0.78977E+02</wgt>
<wgt id='3411'>0.78830E+02</wgt>
<wgt id='3412'>0.79108E+02</wgt>
<wgt id='3413'>0.78475E+02</wgt>
<wgt id='3414'>0.78714E+02</wgt>
<wgt id='3415'>0.78766E+02</wgt>
<wgt id='3416'>0.78347E+02</wgt>
<wgt id='3417'>0.78339E+02</wgt>
<wgt id='3418'>0.78214E+02</wgt>
<wgt id='3419'>0.78100E+02</wgt>
<wgt id='3420'>0.79173E+02</wgt>
<wgt id='3421'>0.79333E+02</wgt>
<wgt id='3422'>0.79005E+02</wgt>
<wgt id='3423'>0.79361E+02</wgt>
<wgt id='3424'>0.78874E+02</wgt>
<wgt id='3425'>0.78758E+02</wgt>
<wgt id='3426'>0.78750E+02</wgt>
<wgt id='3427'>0.78880E+02</wgt>
<wgt id='3428'>0.79215E+02</wgt>
<wgt id='3429'>0.78087E+02</wgt>
<wgt id='3430'>0.78815E+02</wgt>
<wgt id='3431'>0.78401E+02</wgt>
<wgt id='3432'>0.77904E+02</wgt>
<wgt id='3433'>0.77358E+02</wgt>
<wgt id='3434'>0.78690E+02</wgt>
<wgt id='3435'>0.78944E+02</wgt>
<wgt id='3436'>0.78670E+02</wgt>
<wgt id='3437'>0.78188E+02</wgt>
<wgt id='3438'>0.77907E+02</wgt>
<wgt id='3439'>0.79417E+02</wgt>
<wgt id='3440'>0.78821E+02</wgt>
<wgt id='3441'>0.78694E+02</wgt>
<wgt id='3442'>0.77445E+02</wgt>
<wgt id='3443'>0.78423E+02</wgt>
<wgt id='3444'>0.78730E+02</wgt>
<wgt id='3445'>0.78217E+02</wgt>
<wgt id='3446'>0.79680E+02</wgt>
<wgt id='3447'>0.79936E+02</wgt>
<wgt id='3448'>0.79007E+02</wgt>
<wgt id='3449'>0.79527E+02</wgt>
<wgt id='3450'>0.78788E+02</wgt>
<wgt id='3451'>0.79251E+02</wgt>
<wgt id='3452'>0.78141E+02</wgt>
<wgt id='3453'>0.77887E+02</wgt>
<wgt id='3454'>0.77744E+02</wgt>
<wgt id='3455'>0.79619E+02</wgt>
<wgt id='3456'>0.78946E+02</wgt>
<wgt id='3457'>0.79940E+02</wgt>
<wgt id='3458'>0.79002E+02</wgt>
<wgt id='3459'>0.78477E+02</wgt>
<wgt id='3460'>0.78514E+02</wgt>
<wgt id='3461'>0.78264E+02</wgt>
<wgt id='3462'>0.78271E+02</wgt>
<wgt id='3463'>0.78048E+02</wgt>
<wgt id='3464'>0.78931E+02</wgt>
<wgt id='3465'>0.78484E+02</wgt>
<wgt id='3466'>0.79135E+02</wgt>
<wgt id='3467'>0.78323E+02</wgt>
<wgt id='3468'>0.78154E+02</wgt>
<wgt id='3469'>0.78907E+02</wgt>
<wgt id='3470'>0.78559E+02</wgt>
<wgt id='3471'>0.78429E+02</wgt>
<wgt id='3472'>0.78026E+02</wgt>
<wgt id='3473'>0.78800E+02</wgt>
<wgt id='3474'>0.78765E+02</wgt>
<wgt id='3475'>0.78453E+02</wgt>
<wgt id='3476'>0.78551E+02</wgt>
<wgt id='3477'>0.78130E+02</wgt>
<wgt id='3478'>0.79206E+02</wgt>
<wgt id='3479'>0.79162E+02</wgt>
<wgt id='3480'>0.77815E+02</wgt>
<wgt id='3481'>0.78402E+02</wgt>
<wgt id='3482'>0.78554E+02</wgt>
<wgt id='3483'>0.77296E+02</wgt>
<wgt id='3484'>0.78775E+02</wgt>
<wgt id='3485'>0.78251E+02</wgt>
<wgt id='3486'>0.77701E+02</wgt>
<wgt id='3487'>0.79199E+02</wgt>
<wgt id='3488'>0.79164E+02</wgt>
<wgt id='3489'>0.77993E+02</wgt>
<wgt id='3490'>0.79320E+02</wgt>
<wgt id='3491'>0.78103E+02</wgt>
<wgt id='3492'>0.79046E+02</wgt>
<wgt id='3493'>0.77673E+02</wgt>
<wgt id='3494'>0.76732E+02</wgt>
<wgt id='3495'>0.78826E+02</wgt>
<wgt id='3496'>0.77654E+02</wgt>
<wgt id='3497'>0.78143E+02</wgt>
<wgt id='3498'>0.78392E+02</wgt>
<wgt id='3499'>0.78719E+02</wgt>
<wgt id='3500'>0.78775E+02</wgt>
</rwgt>
</event>
<event>
     13 322200  8.11039E+01  1.04487E+02 -1.00000E+00  1.21412E-01
      21    -1     0     0   502   503  0.000000000E+00  0.000000000E+00  8.547241676E+02  8.547241676E+02  0.000000000E+00  0.00000E+00  9.000E+00
      21    -1     0     0   504   505  0.000000000E+00  0.000000000E+00 -1.392204064E+02  1.392204064E+02  0.000000000E+00  0.00000E+00  9.000E+00
       6     2     1     2   502     0 -1.361815094E+01 -2.326601580E+02  5.729817462E+02  6.421798260E+02  1.725417176E+02  0.00000E+00  9.000E+00
      -6     2     1     2     0   505  7.831040384E+00  1.283332756E+02  1.104732401E+02  2.424728771E+02  1.733724446E+02  0.00000E+00  9.000E+00
      21     1     1     2   504   503  5.787110560E+00  1.043268825E+02  3.204877494E+01  1.092918708E+02  2.236564522E-06  0.00000E+00  9.000E+00
      24     2     3     3     0     0  4.473499713E+01 -5.240594607E+01  1.962364805E+02  2.204461782E+02  7.307638527E+01  0.00000E+00  9.000E+00
       5     1     3     3   502     0 -5.835314807E+01 -1.802542120E+02  3.767452657E+02  4.217336477E+02  5.060000000E+00  0.00000E+00 -1.000E+00
     -24     2     4     4     0     0 -1.320564597E+01  1.447182153E+02  1.287560673E+02  2.097486690E+02  7.936389837E+01  0.00000E+00  9.000E+00
      -5     1     4     4     0   505  2.103668635E+01 -1.638493974E+01 -1.828282722E+01  3.272420808E+01  5.060000000E+00  0.00000E+00  1.000E+00
     -15     1     6     6     0     0  3.801386544E+01 -1.338157701E+01  1.654244476E+02  1.702719183E+02  1.777000000E+00  0.00000E+00  1.000E+00
      16     1     6     6     0     0  6.721131689E+00 -3.902436905E+01  3.081203286E+01  5.017425994E+01  0.000000000E+00  0.00000E+00 -1.000E+00
      11     1     8     8     0     0 -1.138918599E+01 -3.022465084E+00  2.946472486E+01  3.173356054E+01  5.100000000E-04  0.00000E+00 -1.000E+00
     -12     1     8     8     0     0 -1.816459981E+00  1.477406804E+02  9.929134246E+01  1.780151085E+02  0.000000000E+00  0.00000E+00  1.000E+00
#rwgt            1           1   468.13791430353734               10       13768           0
<rwgt>
<wgt id='1001'>0.81104E+02</wgt>
<wgt id='1002'>0.79879E+02</wgt>
<wgt id='1003'>0.82323E+02</wgt>
<wgt id='1004'>0.72601E+02</wgt>
<wgt id='1005'>0.70996E+02</wgt>
<wgt id='1006'>0.74249E+02</wgt>
<wgt id='1007'>0.90608E+02</wgt>
<wgt id='1008'>0.90110E+02</wgt>
<wgt id='1009'>0.91015E+02</wgt>
<wgt id='2000'>0.81104E+02</wgt>
<wgt id='2001'>0.80939E+02</wgt>
<wgt id='2002'>0.80941E+02</wgt>
<wgt id='2003'>0.81233E+02</wgt>
<wgt id='2004'>0.81305E+02</wgt>
<wgt id='2005'>0.80999E+02</wgt>
<wgt id='2006'>0.81288E+02</wgt>
<wgt id='2007'>0.81209E+02</wgt>
<wgt id='2008'>0.81204E+02</wgt>
<wgt id='2009'>0.81148E+02</wgt>
<wgt id='2010'>0.81030E+02</wgt>
<wgt id='2011'>0.81068E+02</wgt>
<wgt id='2012'>0.81270E+02</wgt>
<wgt id='2013'>0.81161E+02</wgt>
<wgt id='2014'>0.81187E+02</wgt>
<wgt id='2015'>0.81125E+02</wgt>
<wgt id='2016'>0.81214E+02</wgt>
<wgt id='2017'>0.81215E+02</wgt>
<wgt id='2018'>0.81180E+02</wgt>
<wgt id='2019'>0.80568E+02</wgt>
<wgt id='2020'>0.81165E+02</wgt>
<wgt id='2021'>0.81090E+02</wgt>
<wgt id='2022'>0.81112E+02</wgt>
<wgt id='2023'>0.81434E+02</wgt>
<wgt id='2024'>0.80753E+02</wgt>
<wgt id='2025'>0.81156E+02</wgt>
<wgt id='2026'>0.80955E+02</wgt>
<wgt id='2027'>0.81086E+02</wgt>
<wgt id='2028'>0.81235E+02</wgt>
<wgt id='2029'>0.80940E+02</wgt>
<wgt id='2030'>0.81170E+02</wgt>
<wgt id='2031'>0.80729E+02</wgt>
<wgt id='2032'>0.81025E+02</wgt>
<wgt id='2033'>0.80996E+02</wgt>
<wgt id='2034'>0.80857E+02</wgt>
<wgt id='2035'>0.81171E+02</wgt>
<wgt id='2036'>0.81276E+02</wgt>
<wgt id='2037'>0.81049E+02</wgt>
<wgt id='2038'>0.80993E+02</wgt>
<wgt id='2039'>0.81039E+02</wgt>
<wgt id='2040'>0.81033E+02</wgt>
<wgt id='2041'>0.81026E+02</wgt>
<wgt id='2042'>0.81224E+02</wgt>
<wgt id='2043'>0.81054E+02</wgt>
<wgt id='2044'>0.81183E+02</wgt>
<wgt id='2045'>0.81102E+02</wgt>
<wgt id='2046'>0.81069E+02</wgt>
<wgt id='2047'>0.81109E+02</wgt>
<wgt id='2048'>0.81100E+02</wgt>
<wgt id='2049'>0.81034E+02</wgt>
<wgt id='2050'>0.81050E+02</wgt>
<wgt id='2051'>0.81077E+02</wgt>
<wgt id='2052'>0.81208E+02</wgt>
<wgt id='2053'>0.81094E+02</wgt>
<wgt id='2054'>0.81090E+02</wgt>
<wgt id='2055'>0.81078E+02</wgt>
<wgt id='2056'>0.81036E+02</wgt>
<wgt id='2057'>0.81137E+02</wgt>
<wgt id='2058'>0.81155E+02</wgt>
<wgt id='2059'>0.81104E+02</wgt>
<wgt id='2060'>0.81094E+02</wgt>
<wgt id='2061'>0.81086E+02</wgt>
<wgt id='2062'>0.81180E+02</wgt>
<wgt id='2063'>0.81122E+02</wgt>
<wgt id='2064'>0.81108E+02</wgt>
<wgt id='2065'>0.81172E+02</wgt>
<wgt id='2066'>0.81067E+02</wgt>
<wgt id='2067'>0.81105E+02</wgt>
<wgt id='2068'>0.81135E+02</wgt>
<wgt id='2069'>0.81110E+02</wgt>
<wgt id='2070'>0.81120E+02</wgt>
<wgt id='2071'>0.81089E+02</wgt>
<wgt id='2072'>0.81092E+02</wgt>
<wgt id='2073'>0.81124E+02</wgt>
<wgt id='2074'>0.81085E+02</wgt>
<wgt id='2075'>0.81083E+02</wgt>
<wgt id='2076'>0.81081E+02</wgt>
<wgt id='2077'>0.81153E+02</wgt>
<wgt id='2078'>0.81121E+02</wgt>
<wgt id='2079'>0.81082E+02</wgt>
<wgt id='2080'>0.81119E+02</wgt>
<wgt id='2081'>0.81098E+02</wgt>
<wgt id='2082'>0.81121E+02</wgt>
<wgt id='2083'>0.81147E+02</wgt>
<wgt id='2084'>0.81105E+02</wgt>
<wgt id='2085'>0.81112E+02</wgt>
<wgt id='2086'>0.81088E+02</wgt>
<wgt id='2087'>0.81118E+02</wgt>
<wgt id='2088'>0.81102E+02</wgt>
<wgt id='2089'>0.81088E+02</wgt>
<wgt id='2090'>0.81123E+02</wgt>
<wgt id='2091'>0.81107E+02</wgt>
<wgt id='2092'>0.81139E+02</wgt>
<wgt id='2093'>0.81085E+02</wgt>
<wgt id='2094'>0.81108E+02</wgt>
<wgt id='2095'>0.81127E+02</wgt>
<wgt id='2096'>0.81090E+02</wgt>
<wgt id='2097'>0.81120E+02</wgt>
<wgt id='2098'>0.81102E+02</wgt>
<wgt id='2099'>0.81115E+02</wgt>
<wgt id='2100'>0.81104E+02</wgt>
<wgt id='2101'>0.79367E+02</wgt>
<wgt id='2102'>0.83258E+02</wgt>
<wgt id='2200'>0.81166E+02</wgt>
<wgt id='2201'>0.71416E+02</wgt>
<wgt id='2202'>0.73445E+02</wgt>
<wgt id='2203'>0.75299E+02</wgt>
<wgt id='2204'>0.76995E+02</wgt>
<wgt id='2205'>0.80246E+02</wgt>
<wgt id='2206'>0.82392E+02</wgt>
<wgt id='2207'>0.85229E+02</wgt>
<wgt id='2208'>0.87282E+02</wgt>
<wgt id='2300'>0.85334E+02</wgt>
<wgt id='2301'>0.85485E+02</wgt>
<wgt id='2302'>0.85209E+02</wgt>
<wgt id='2303'>0.85314E+02</wgt>
<wgt id='2304'>0.85587E+02</wgt>
<wgt id='2305'>0.85383E+02</wgt>
<wgt id='2306'>0.85311E+02</wgt>
<wgt id='2307'>0.85383E+02</wgt>
<wgt id='2308'>0.85271E+02</wgt>
<wgt id='2309'>0.85415E+02</wgt>
<wgt id='2310'>0.85145E+02</wgt>
<wgt id='2311'>0.85245E+02</wgt>
<wgt id='2312'>0.85454E+02</wgt>
<wgt id='2313'>0.85306E+02</wgt>
<wgt id='2314'>0.85332E+02</wgt>
<wgt id='2315'>0.85276E+02</wgt>
<wgt id='2316'>0.85388E+02</wgt>
<wgt id='2317'>0.85332E+02</wgt>
<wgt id='2318'>0.85339E+02</wgt>
<wgt id='2319'>0.85418E+02</wgt>
<wgt id='2320'>0.85537E+02</wgt>
<wgt id='2321'>0.85517E+02</wgt>
<wgt id='2322'>0.85316E+02</wgt>
<wgt id='2323'>0.85368E+02</wgt>
<wgt id='2324'>0.85456E+02</wgt>
<wgt id='2325'>0.85422E+02</wgt>
<wgt id='2326'>0.85102E+02</wgt>
<wgt id='2327'>0.85415E+02</wgt>
<wgt id='2328'>0.85432E+02</wgt>
<wgt id='2329'>0.85145E+02</wgt>
<wgt id='2330'>0.85848E+02</wgt>
<wgt id='2331'>0.85581E+02</wgt>
<wgt id='2332'>0.85120E+02</wgt>
<wgt id='2333'>0.85210E+02</wgt>
<wgt id='2334'>0.85249E+02</wgt>
<wgt id='2335'>0.85364E+02</wgt>
<wgt id='2336'>0.85466E+02</wgt>
<wgt id='2337'>0.85455E+02</wgt>
<wgt id='2338'>0.85369E+02</wgt>
<wgt id='2339'>0.85595E+02</wgt>
<wgt id='2340'>0.85389E+02</wgt>
<wgt id='2341'>0.85318E+02</wgt>
<wgt id='2342'>0.85093E+02</wgt>
<wgt id='2343'>0.85070E+02</wgt>
<wgt id='2344'>0.85517E+02</wgt>
<wgt id='2345'>0.85482E+02</wgt>
<wgt id='2346'>0.85493E+02</wgt>
<wgt id='2347'>0.85279E+02</wgt>
<wgt id='2348'>0.85469E+02</wgt>
<wgt id='2349'>0.85268E+02</wgt>
<wgt id='2350'>0.85217E+02</wgt>
<wgt id='2351'>0.85590E+02</wgt>
<wgt id='2352'>0.85288E+02</wgt>
<wgt id='2353'>0.85258E+02</wgt>
<wgt id='2354'>0.85320E+02</wgt>
<wgt id='2355'>0.85399E+02</wgt>
<wgt id='2356'>0.85338E+02</wgt>
<wgt id='2357'>0.85280E+02</wgt>
<wgt id='2358'>0.85326E+02</wgt>
<wgt id='2359'>0.85299E+02</wgt>
<wgt id='2360'>0.85355E+02</wgt>
<wgt id='2361'>0.85303E+02</wgt>
<wgt id='2362'>0.85326E+02</wgt>
<wgt id='2363'>0.85371E+02</wgt>
<wgt id='2364'>0.85336E+02</wgt>
<wgt id='2365'>0.85336E+02</wgt>
<wgt id='2366'>0.85349E+02</wgt>
<wgt id='2367'>0.85314E+02</wgt>
<wgt id='2368'>0.85327E+02</wgt>
<wgt id='2369'>0.85288E+02</wgt>
<wgt id='2370'>0.85317E+02</wgt>
<wgt id='2371'>0.85354E+02</wgt>
<wgt id='2372'>0.85340E+02</wgt>
<wgt id='2373'>0.85299E+02</wgt>
<wgt id='2374'>0.85452E+02</wgt>
<wgt id='2375'>0.85341E+02</wgt>
<wgt id='2376'>0.85350E+02</wgt>
<wgt id='2377'>0.85347E+02</wgt>
<wgt id='2378'>0.85377E+02</wgt>
<wgt id='2379'>0.85280E+02</wgt>
<wgt id='2380'>0.85295E+02</wgt>
<wgt id='2381'>0.85312E+02</wgt>
<wgt id='2382'>0.85291E+02</wgt>
<wgt id='2383'>0.85363E+02</wgt>
<wgt id='2384'>0.85338E+02</wgt>
<wgt id='2385'>0.85342E+02</wgt>
<wgt id='2386'>0.85321E+02</wgt>
<wgt id='2387'>0.85313E+02</wgt>
<wgt id='2388'>0.85324E+02</wgt>
<wgt id='2389'>0.85340E+02</wgt>
<wgt id='2390'>0.85307E+02</wgt>
<wgt id='2391'>0.85315E+02</wgt>
<wgt id='2392'>0.85348E+02</wgt>
<wgt id='2393'>0.85359E+02</wgt>
<wgt id='2394'>0.85348E+02</wgt>
<wgt id='2395'>0.85342E+02</wgt>
<wgt id='2396'>0.85319E+02</wgt>
<wgt id='2397'>0.85312E+02</wgt>
<wgt id='2398'>0.85342E+02</wgt>
<wgt id='2399'>0.85352E+02</wgt>
<wgt id='2400'>0.85348E+02</wgt>
<wgt id='2401'>0.83341E+02</wgt>
<wgt id='2402'>0.87473E+02</wgt>
<wgt id='2500'>0.82165E+02</wgt>
<wgt id='2501'>0.87095E+02</wgt>
<wgt id='2600'>0.79064E+02</wgt>
<wgt id='2601'>0.78915E+02</wgt>
<wgt id='2602'>0.79089E+02</wgt>
<wgt id='2603'>0.79047E+02</wgt>
<wgt id='2604'>0.79121E+02</wgt>
<wgt id='2605'>0.78963E+02</wgt>
<wgt id='2606'>0.79041E+02</wgt>
<wgt id='2607'>0.79134E+02</wgt>
<wgt id='2608'>0.79119E+02</wgt>
<wgt id='2609'>0.78994E+02</wgt>
<wgt id='2610'>0.79007E+02</wgt>
<wgt id='2611'>0.79030E+02</wgt>
<wgt id='2612'>0.79162E+02</wgt>
<wgt id='2613'>0.79058E+02</wgt>
<wgt id='2614'>0.79006E+02</wgt>
<wgt id='2615'>0.78889E+02</wgt>
<wgt id='2616'>0.79088E+02</wgt>
<wgt id='2617'>0.78878E+02</wgt>
<wgt id='2618'>0.78983E+02</wgt>
<wgt id='2619'>0.79127E+02</wgt>
<wgt id='2620'>0.78975E+02</wgt>
<wgt id='2621'>0.79143E+02</wgt>
<wgt id='2622'>0.79378E+02</wgt>
<wgt id='2623'>0.79050E+02</wgt>
<wgt id='2624'>0.79036E+02</wgt>
<wgt id='2625'>0.79074E+02</wgt>
<wgt id='2626'>0.79072E+02</wgt>
<wgt id='2627'>0.79116E+02</wgt>
<wgt id='2628'>0.79058E+02</wgt>
<wgt id='2629'>0.79105E+02</wgt>
<wgt id='2630'>0.79174E+02</wgt>
<wgt id='2631'>0.78934E+02</wgt>
<wgt id='2632'>0.79027E+02</wgt>
<wgt id='2633'>0.79001E+02</wgt>
<wgt id='2634'>0.78953E+02</wgt>
<wgt id='2635'>0.79016E+02</wgt>
<wgt id='2636'>0.79066E+02</wgt>
<wgt id='2637'>0.79081E+02</wgt>
<wgt id='2638'>0.79080E+02</wgt>
<wgt id='2639'>0.79071E+02</wgt>
<wgt id='2640'>0.79052E+02</wgt>
<wgt id='2641'>0.79079E+02</wgt>
<wgt id='2642'>0.79081E+02</wgt>
<wgt id='2643'>0.79036E+02</wgt>
<wgt id='2644'>0.79058E+02</wgt>
<wgt id='2645'>0.79057E+02</wgt>
<wgt id='2646'>0.79116E+02</wgt>
<wgt id='2647'>0.79050E+02</wgt>
<wgt id='2648'>0.79049E+02</wgt>
<wgt id='2649'>0.79062E+02</wgt>
<wgt id='2650'>0.79068E+02</wgt>
<wgt id='2651'>0.77746E+02</wgt>
<wgt id='2652'>0.80169E+02</wgt>
<wgt id='2700'>0.76595E+02</wgt>
<wgt id='2701'>0.77746E+02</wgt>
<wgt id='2702'>0.78463E+02</wgt>
<wgt id='2703'>0.79600E+02</wgt>
<wgt id='2704'>0.80169E+02</wgt>
<wgt id='2705'>0.81374E+02</wgt>
<wgt id='2800'>0.80515E+02</wgt>
<wgt id='4000'>0.81867E+02</wgt>
<wgt id='4001'>0.82181E+02</wgt>
<wgt id='4002'>0.81843E+02</wgt>
<wgt id='4003'>0.81660E+02</wgt>
<wgt id='4004'>0.82142E+02</wgt>
<wgt id='4005'>0.81836E+02</wgt>
<wgt id='4006'>0.81998E+02</wgt>
<wgt id='4007'>0.82537E+02</wgt>
<wgt id='4008'>0.81239E+02</wgt>
<wgt id='4009'>0.81833E+02</wgt>
<wgt id='4010'>0.81731E+02</wgt>
<wgt id='4011'>0.82304E+02</wgt>
<wgt id='4012'>0.81366E+02</wgt>
<wgt id='4013'>0.82219E+02</wgt>
<wgt id='4014'>0.81645E+02</wgt>
<wgt id='4015'>0.81671E+02</wgt>
<wgt id='4016'>0.82611E+02</wgt>
<wgt id='4017'>0.81861E+02</wgt>
<wgt id='4018'>0.81908E+02</wgt>
<wgt id='4019'>0.82133E+02</wgt>
<wgt id='4020'>0.81543E+02</wgt>
<wgt id='4021'>0.82044E+02</wgt>
<wgt id='4022'>0.81548E+02</wgt>
<wgt id='4023'>0.82091E+02</wgt>
<wgt id='4024'>0.82064E+02</wgt>
<wgt id='4025'>0.81953E+02</wgt>
<wgt id='4026'>0.81753E+02</wgt>
<wgt id='4027'>0.82270E+02</wgt>
<wgt id='4028'>0.81567E+02</wgt>
<wgt id='4029'>0.82228E+02</wgt>
<wgt id='4030'>0.81160E+02</wgt>
<wgt id='4031'>0.81627E+02</wgt>
<wgt id='4032'>0.82803E+02</wgt>
<wgt id='4033'>0.82331E+02</wgt>
<wgt id='4034'>0.81284E+02</wgt>
<wgt id='4035'>0.82705E+02</wgt>
<wgt id='4036'>0.81229E+02</wgt>
<wgt id='4037'>0.83877E+02</wgt>
<wgt id='4038'>0.80363E+02</wgt>
<wgt id='4039'>0.83508E+02</wgt>
<wgt id='4040'>0.80285E+02</wgt>
<wgt id='4041'>0.82139E+02</wgt>
<wgt id='4042'>0.81509E+02</wgt>
<wgt id='4043'>0.81398E+02</wgt>
<wgt id='4044'>0.81471E+02</wgt>
<wgt id='4045'>0.82613E+02</wgt>
<wgt id='4046'>0.81524E+02</wgt>
<wgt id='4047'>0.81645E+02</wgt>
<wgt id='4048'>0.82114E+02</wgt>
<wgt id='4049'>0.81904E+02</wgt>
<wgt id='4050'>0.81855E+02</wgt>
<wgt id='4051'>0.82518E+02</wgt>
<wgt id='4052'>0.81407E+02</wgt>
<wgt id='4053'>0.82025E+02</wgt>
<wgt id='4054'>0.81164E+02</wgt>
<wgt id='4055'>0.82298E+02</wgt>
<wgt id='4056'>0.81443E+02</wgt>
<wgt id='4057'>0.81108E+02</wgt>
<wgt id='4058'>0.82376E+02</wgt>
<wgt id='4100'>0.82383E+02</wgt>
<wgt id='4101'>0.82113E+02</wgt>
<wgt id='4102'>0.81636E+02</wgt>
<wgt id='4103'>0.81408E+02</wgt>
<wgt id='4200'>0.79424E+02</wgt>
<wgt id='4201'>0.79445E+02</wgt>
<wgt id='4202'>0.79638E+02</wgt>
<wgt id='4203'>0.78896E+02</wgt>
<wgt id='4204'>0.79762E+02</wgt>
<wgt id='4205'>0.79364E+02</wgt>
<wgt id='4206'>0.79681E+02</wgt>
<wgt id='4207'>0.79711E+02</wgt>
<wgt id='4208'>0.79300E+02</wgt>
<wgt id='4209'>0.79387E+02</wgt>
<wgt id='4210'>0.79534E+02</wgt>
<wgt id='4211'>0.80241E+02</wgt>
<wgt id='4212'>0.78784E+02</wgt>
<wgt id='4213'>0.79621E+02</wgt>
<wgt id='4214'>0.79109E+02</wgt>
<wgt id='4215'>0.79419E+02</wgt>
<wgt id='4216'>0.79406E+02</wgt>
<wgt id='4217'>0.79221E+02</wgt>
<wgt id='4218'>0.79536E+02</wgt>
<wgt id='4219'>0.78712E+02</wgt>
<wgt id='4220'>0.80128E+02</wgt>
<wgt id='4221'>0.78908E+02</wgt>
<wgt id='4222'>0.80134E+02</wgt>
<wgt id='4223'>0.79166E+02</wgt>
<wgt id='4224'>0.78974E+02</wgt>
<wgt id='4225'>0.78356E+02</wgt>
<wgt id='4226'>0.80635E+02</wgt>
<wgt id='4227'>0.80098E+02</wgt>
<wgt id='4228'>0.78857E+02</wgt>
<wgt id='4229'>0.78301E+02</wgt>
<wgt id='4230'>0.80310E+02</wgt>
<wgt id='4231'>0.79618E+02</wgt>
<wgt id='4232'>0.79073E+02</wgt>
<wgt id='4233'>0.79603E+02</wgt>
<wgt id='4234'>0.78835E+02</wgt>
<wgt id='4235'>0.80074E+02</wgt>
<wgt id='4236'>0.78813E+02</wgt>
<wgt id='4237'>0.80183E+02</wgt>
<wgt id='4238'>0.78211E+02</wgt>
<wgt id='4239'>0.79395E+02</wgt>
<wgt id='4240'>0.78832E+02</wgt>
<wgt id='4241'>0.79336E+02</wgt>
<wgt id='4242'>0.79499E+02</wgt>
<wgt id='4243'>0.79535E+02</wgt>
<wgt id='4244'>0.79526E+02</wgt>
<wgt id='4245'>0.79030E+02</wgt>
<wgt id='4246'>0.79588E+02</wgt>
<wgt id='4247'>0.78943E+02</wgt>
<wgt id='4248'>0.79643E+02</wgt>
<wgt id='4249'>0.80581E+02</wgt>
<wgt id='4250'>0.78077E+02</wgt>
<wgt id='4251'>0.79569E+02</wgt>
<wgt id='4252'>0.79261E+02</wgt>
<wgt id='4253'>0.79455E+02</wgt>
<wgt id='4254'>0.79176E+02</wgt>
<wgt id='4255'>0.80357E+02</wgt>
<wgt id='4256'>0.78899E+02</wgt>
<wgt id='4257'>0.77990E+02</wgt>
<wgt id='4258'>0.79838E+02</wgt>
<wgt id='4300'>0.81001E+02</wgt>
<wgt id='4301'>0.80974E+02</wgt>
<wgt id='5000'>0.81879E+02</wgt>
<wgt id='5001'>0.81921E+02</wgt>
<wgt id='5002'>0.81827E+02</wgt>
<wgt id='5003'>0.81899E+02</wgt>
<wgt id='5004'>0.81862E+02</wgt>
<wgt id='5005'>0.81885E+02</wgt>
<wgt id='5006'>0.81871E+02</wgt>
<wgt id='5007'>0.81959E+02</wgt>
<wgt id='5008'>0.81815E+02</wgt>
<wgt id='5009'>0.81986E+02</wgt>
<wgt id='5010'>0.81770E+02</wgt>
<wgt id='5011'>0.82111E+02</wgt>
<wgt id='5012'>0.81656E+02</wgt>
<wgt id='5013'>0.82006E+02</wgt>
<wgt id='5014'>0.81789E+02</wgt>
<wgt id='5015'>0.81466E+02</wgt>
<wgt id='5016'>0.81466E+02</wgt>
<wgt id='5017'>0.82271E+02</wgt>
<wgt id='5018'>0.81616E+02</wgt>
<wgt id='5019'>0.82164E+02</wgt>
<wgt id='5020'>0.81490E+02</wgt>
<wgt id='5021'>0.81979E+02</wgt>
<wgt id='5022'>0.81724E+02</wgt>
<wgt id='5023'>0.81810E+02</wgt>
<wgt id='5024'>0.82044E+02</wgt>
<wgt id='5025'>0.81639E+02</wgt>
<wgt id='5026'>0.82148E+02</wgt>
<wgt id='5027'>0.81929E+02</wgt>
<wgt id='5028'>0.81747E+02</wgt>
<wgt id='5029'>0.82761E+02</wgt>
<wgt id='5030'>0.81383E+02</wgt>
<wgt id='5031'>0.81395E+02</wgt>
<wgt id='5032'>0.83357E+02</wgt>
<wgt id='5033'>0.81840E+02</wgt>
<wgt id='5034'>0.81922E+02</wgt>
<wgt id='5035'>0.81892E+02</wgt>
<wgt id='5036'>0.81864E+02</wgt>
<wgt id='5037'>0.81676E+02</wgt>
<wgt id='5038'>0.81994E+02</wgt>
<wgt id='5039'>0.82070E+02</wgt>
<wgt id='5040'>0.81408E+02</wgt>
<wgt id='5041'>0.81835E+02</wgt>
<wgt id='5042'>0.81931E+02</wgt>
<wgt id='5043'>0.82041E+02</wgt>
<wgt id='5044'>0.81772E+02</wgt>
<wgt id='5045'>0.81929E+02</wgt>
<wgt id='5046'>0.81809E+02</wgt>
<wgt id='5047'>0.81951E+02</wgt>
<wgt id='5048'>0.81567E+02</wgt>
<wgt id='5049'>0.81809E+02</wgt>
<wgt id='5050'>0.82044E+02</wgt>
<wgt id='5051'>0.82077E+02</wgt>
<wgt id='5052'>0.81733E+02</wgt>
<wgt id='5053'>0.81927E+02</wgt>
<wgt id='5054'>0.82058E+02</wgt>
<wgt id='5055'>0.81928E+02</wgt>
<wgt id='5056'>0.81915E+02</wgt>
<wgt id='5057'>0.81565E+02</wgt>
<wgt id='5058'>0.82100E+02</wgt>
<wgt id='5059'>0.81788E+02</wgt>
<wgt id='5060'>0.81933E+02</wgt>
<wgt id='5061'>0.82121E+02</wgt>
<wgt id='5062'>0.82042E+02</wgt>
<wgt id='5063'>0.82174E+02</wgt>
<wgt id='5064'>0.81904E+02</wgt>
<wgt id='5100'>0.81879E+02</wgt>
<wgt id='5101'>0.81878E+02</wgt>
<wgt id='6000'>0.81215E+02</wgt>
<wgt id='6001'>0.80968E+02</wgt>
<wgt id='6002'>0.80874E+02</wgt>
<wgt id='6003'>0.81001E+02</wgt>
<wgt id='6004'>0.81395E+02</wgt>
<wgt id='6005'>0.80801E+02</wgt>
<wgt id='6006'>0.81279E+02</wgt>
<wgt id='6007'>0.80817E+02</wgt>
<wgt id='6008'>0.81211E+02</wgt>
<wgt id='6009'>0.81137E+02</wgt>
<wgt id='6010'>0.80628E+02</wgt>
<wgt id='6011'>0.81161E+02</wgt>
<wgt id='6012'>0.81402E+02</wgt>
<wgt id='6013'>0.80851E+02</wgt>
<wgt id='6014'>0.80950E+02</wgt>
<wgt id='6015'>0.80559E+02</wgt>
<wgt id='6016'>0.81518E+02</wgt>
<wgt id='6017'>0.80928E+02</wgt>
<wgt id='6018'>0.80766E+02</wgt>
<wgt id='6019'>0.81257E+02</wgt>
<wgt id='6020'>0.81392E+02</wgt>
<wgt id='6021'>0.81107E+02</wgt>
<wgt id='6022'>0.81344E+02</wgt>
<wgt id='6023'>0.81193E+02</wgt>
<wgt id='6024'>0.81300E+02</wgt>
<wgt id='6025'>0.81611E+02</wgt>
<wgt id='6026'>0.81104E+02</wgt>
<wgt id='6027'>0.81225E+02</wgt>
<wgt id='6028'>0.80905E+02</wgt>
<wgt id='6029'>0.81056E+02</wgt>
<wgt id='6030'>0.80872E+02</wgt>
<wgt id='6031'>0.80973E+02</wgt>
<wgt id='6032'>0.81193E+02</wgt>
<wgt id='6033'>0.81145E+02</wgt>
<wgt id='6034'>0.81553E+02</wgt>
<wgt id='6035'>0.81268E+02</wgt>
<wgt id='6036'>0.81869E+02</wgt>
<wgt id='6037'>0.81216E+02</wgt>
<wgt id='6038'>0.81174E+02</wgt>
<wgt id='6039'>0.81439E+02</wgt>
<wgt id='6040'>0.81206E+02</wgt>
<wgt id='6041'>0.79600E+02</wgt>
<wgt id='6042'>0.81656E+02</wgt>
<wgt id='7000'>0.80408E+02</wgt>
<wgt id='7001'>0.79485E+02</wgt>
<wgt id='7002'>0.79655E+02</wgt>
<wgt id='7003'>0.79553E+02</wgt>
<wgt id='7004'>0.79588E+02</wgt>
<wgt id='7005'>0.79650E+02</wgt>
<wgt id='7006'>0.79490E+02</wgt>
<wgt id='7007'>0.80051E+02</wgt>
<wgt id='7008'>0.79103E+02</wgt>
<wgt id='7009'>0.79212E+02</wgt>
<wgt id='7010'>0.79941E+02</wgt>
<wgt id='7011'>0.79834E+02</wgt>
<wgt id='7012'>0.79312E+02</wgt>
<wgt id='7013'>0.79483E+02</wgt>
<wgt id='7014'>0.79651E+02</wgt>
<wgt id='7015'>0.79613E+02</wgt>
<wgt id='7016'>0.79333E+02</wgt>
<wgt id='7017'>0.79531E+02</wgt>
<wgt id='7018'>0.79615E+02</wgt>
<wgt id='7019'>0.79648E+02</wgt>
<wgt id='7020'>0.79505E+02</wgt>
<wgt id='7021'>0.80188E+02</wgt>
<wgt id='7022'>0.78962E+02</wgt>
<wgt id='7023'>0.78869E+02</wgt>
<wgt id='7024'>0.80279E+02</wgt>
<wgt id='7025'>0.78301E+02</wgt>
<wgt id='7026'>0.80776E+02</wgt>
<wgt id='7027'>0.79018E+02</wgt>
<wgt id='7028'>0.80184E+02</wgt>
<wgt id='8000'>0.80411E+02</wgt>
<wgt id='8001'>0.80404E+02</wgt>
<wgt id='8002'>0.80436E+02</wgt>
<wgt id='8003'>0.80412E+02</wgt>
<wgt id='8004'>0.80409E+02</wgt>
<wgt id='8005'>0.80260E+02</wgt>
<wgt id='8006'>0.80507E+02</wgt>
<wgt id='8007'>0.80583E+02</wgt>
<wgt id='8008'>0.80587E+02</wgt>
<wgt id='8009'>0.80745E+02</wgt>
<wgt id='8010'>0.80318E+02</wgt>
<wgt id='8011'>0.80436E+02</wgt>
<wgt id='8012'>0.80115E+02</wgt>
<wgt id='8013'>0.80245E+02</wgt>
<wgt id='8014'>0.80620E+02</wgt>
<wgt id='8015'>0.80362E+02</wgt>
<wgt id='8016'>0.80510E+02</wgt>
<wgt id='8017'>0.80499E+02</wgt>
<wgt id='8018'>0.80662E+02</wgt>
<wgt id='8019'>0.80369E+02</wgt>
<wgt id='8020'>0.80526E+02</wgt>
<wgt id='8021'>0.80298E+02</wgt>
<wgt id='8022'>0.80628E+02</wgt>
<wgt id='8023'>0.80225E+02</wgt>
<wgt id='8024'>0.80002E+02</wgt>
<wgt id='8025'>0.80183E+02</wgt>
<wgt id='8026'>0.80463E+02</wgt>
<wgt id='8027'>0.80521E+02</wgt>
<wgt id='8028'>0.80445E+02</wgt>
<wgt id='8029'>0.81068E+02</wgt>
<wgt id='3000'>0.81104E+02</wgt>
<wgt id='3001'>0.80491E+02</wgt>
<wgt id='3002'>0.80288E+02</wgt>
<wgt id='3003'>0.81225E+02</wgt>
<wgt id='3004'>0.82225E+02</wgt>
<wgt id='3005'>0.82318E+02</wgt>
<wgt id='3006'>0.82181E+02</wgt>
<wgt id='3007'>0.79705E+02</wgt>
<wgt id='3008'>0.80107E+02</wgt>
<wgt id='3009'>0.80885E+02</wgt>
<wgt id='3010'>0.83511E+02</wgt>
<wgt id='3011'>0.81096E+02</wgt>
<wgt id='3012'>0.80778E+02</wgt>
<wgt id='3013'>0.79319E+02</wgt>
<wgt id='3014'>0.80884E+02</wgt>
<wgt id='3015'>0.80033E+02</wgt>
<wgt id='3016'>0.81637E+02</wgt>
<wgt id='3017'>0.82536E+02</wgt>
<wgt id='3018'>0.80326E+02</wgt>
<wgt id='3019'>0.80116E+02</wgt>
<wgt id='3020'>0.80785E+02</wgt>
<wgt id='3021'>0.78629E+02</wgt>
<wgt id='3022'>0.79554E+02</wgt>
<wgt id='3023'>0.80008E+02</wgt>
<wgt id='3024'>0.81338E+02</wgt>
<wgt id='3025'>0.80170E+02</wgt>
<wgt id='3026'>0.80007E+02</wgt>
<wgt id='3027'>0.81262E+02</wgt>
<wgt id='3028'>0.79830E+02</wgt>
<wgt id='3029'>0.81989E+02</wgt>
<wgt id='3030'>0.81367E+02</wgt>
<wgt id='3031'>0.80370E+02</wgt>
<wgt id='3032'>0.79649E+02</wgt>
<wgt id='3033'>0.80529E+02</wgt>
<wgt id='3034'>0.82654E+02</wgt>
<wgt id='3035'>0.80087E+02</wgt>
<wgt id='3036'>0.79791E+02</wgt>
<wgt id='3037'>0.79392E+02</wgt>
<wgt id='3038'>0.81502E+02</wgt>
<wgt id='3039'>0.79338E+02</wgt>
<wgt id='3040'>0.81622E+02</wgt>
<wgt id='3041'>0.82071E+02</wgt>
<wgt id='3042'>0.81886E+02</wgt>
<wgt id='3043'>0.82326E+02</wgt>
<wgt id='3044'>0.82365E+02</wgt>
<wgt id='3045'>0.81882E+02</wgt>
<wgt id='3046'>0.81578E+02</wgt>
<wgt id='3047'>0.80683E+02</wgt>
<wgt id='3048'>0.81674E+02</wgt>
<wgt id='3049'>0.79697E+02</wgt>
<wgt id='3050'>0.80849E+02</wgt>
<wgt id='3051'>0.80266E+02</wgt>
<wgt id='3052'>0.79854E+02</wgt>
<wgt id='3053'>0.81915E+02</wgt>
<wgt id='3054'>0.79250E+02</wgt>
<wgt id='3055'>0.81395E+02</wgt>
<wgt id='3056'>0.81207E+02</wgt>
<wgt id='3057'>0.79682E+02</wgt>
<wgt id='3058'>0.81899E+02</wgt>
<wgt id='3059'>0.81659E+02</wgt>
<wgt id='3060'>0.80266E+02</wgt>
<wgt id='3061'>0.80335E+02</wgt>
<wgt id='3062'>0.81067E+02</wgt>
<wgt id='3063'>0.80831E+02</wgt>
<wgt id='3064'>0.82398E+02</wgt>
<wgt id='3065'>0.79866E+02</wgt>
<wgt id='3066'>0.82728E+02</wgt>
<wgt id='3067'>0.80212E+02</wgt>
<wgt id='3068'>0.80855E+02</wgt>
<wgt id='3069'>0.81033E+02</wgt>
<wgt id='3070'>0.81401E+02</wgt>
<wgt id='3071'>0.81269E+02</wgt>
<wgt id='3072'>0.80508E+02</wgt>
<wgt id='3073'>0.81709E+02</wgt>
<wgt id='3074'>0.80809E+02</wgt>
<wgt id='3075'>0.81943E+02</wgt>
<wgt id='3076'>0.82877E+02</wgt>
<wgt id='3077'>0.82006E+02</wgt>
<wgt id='3078'>0.79275E+02</wgt>
<wgt id='3079'>0.81153E+02</wgt>
<wgt id='3080'>0.83117E+02</wgt>
<wgt id='3081'>0.81603E+02</wgt>
<wgt id='3082'>0.81637E+02</wgt>
<wgt id='3083'>0.81850E+02</wgt>
<wgt id='3084'>0.80827E+02</wgt>
<wgt id='3085'>0.79890E+02</wgt>
<wgt id='3086'>0.82145E+02</wgt>
<wgt id='3087'>0.80698E+02</wgt>
<wgt id='3088'>0.82338E+02</wgt>
<wgt id='3089'>0.84630E+02</wgt>
<wgt id='3090'>0.82095E+02</wgt>
<wgt id='3091'>0.81368E+02</wgt>
<wgt id='3092'>0.82125E+02</wgt>
<wgt id='3093'>0.81758E+02</wgt>
<wgt id='3094'>0.81967E+02</wgt>
<wgt id='3095'>0.80310E+02</wgt>
<wgt id='3096'>0.80608E+02</wgt>
<wgt id='3097'>0.83645E+02</wgt>
<wgt id='3098'>0.82003E+02</wgt>
<wgt id='3099'>0.80229E+02</wgt>
<wgt id='3100'>0.80822E+02</wgt>
<wgt id='3200'>0.79130E+02</wgt>
<wgt id='3201'>0.79305E+02</wgt>
<wgt id='3202'>0.77494E+02</wgt>
<wgt id='3203'>0.79538E+02</wgt>
<wgt id='3204'>0.78410E+02</wgt>
<wgt id='3205'>0.79431E+02</wgt>
<wgt id='3206'>0.80188E+02</wgt>
<wgt id='3207'>0.80105E+02</wgt>
<wgt id='3208'>0.79471E+02</wgt>
<wgt id='3209'>0.78985E+02</wgt>
<wgt id='3210'>0.79224E+02</wgt>
<wgt id='3211'>0.79622E+02</wgt>
<wgt id='3212'>0.79108E+02</wgt>
<wgt id='3213'>0.79303E+02</wgt>
<wgt id='3214'>0.78796E+02</wgt>
<wgt id='3215'>0.79229E+02</wgt>
<wgt id='3216'>0.79831E+02</wgt>
<wgt id='3217'>0.79471E+02</wgt>
<wgt id='3218'>0.79968E+02</wgt>
<wgt id='3219'>0.79078E+02</wgt>
<wgt id='3220'>0.78386E+02</wgt>
<wgt id='3221'>0.79245E+02</wgt>
<wgt id='3222'>0.80078E+02</wgt>
<wgt id='3223'>0.79980E+02</wgt>
<wgt id='3224'>0.78887E+02</wgt>
<wgt id='3225'>0.80037E+02</wgt>
<wgt id='3226'>0.78581E+02</wgt>
<wgt id='3227'>0.78311E+02</wgt>
<wgt id='3228'>0.78215E+02</wgt>
<wgt id='3229'>0.79970E+02</wgt>
<wgt id='3230'>0.79495E+02</wgt>
<wgt id='3231'>0.79274E+02</wgt>
<wgt id='3232'>0.79439E+02</wgt>
<wgt id='3233'>0.79545E+02</wgt>
<wgt id='3234'>0.78296E+02</wgt>
<wgt id='3235'>0.79167E+02</wgt>
<wgt id='3236'>0.78958E+02</wgt>
<wgt id='3237'>0.79264E+02</wgt>
<wgt id='3238'>0.78233E+02</wgt>
<wgt id='3239'>0.78691E+02</wgt>
<wgt id='3240'>0.78200E+02</wgt>
<wgt id='3241'>0.80026E+02</wgt>
<wgt id='3242'>0.78931E+02</wgt>
<wgt id='3243'>0.78945E+02</wgt>
<wgt id='3244'>0.79074E+02</wgt>
<wgt id='3245'>0.79585E+02</wgt>
<wgt id='3246'>0.77604E+02</wgt>
<wgt id='3247'>0.78798E+02</wgt>
<wgt id='3248'>0.78783E+02</wgt>
<wgt id='3249'>0.78068E+02</wgt>
<wgt id='3250'>0.79297E+02</wgt>
<wgt id='3251'>0.78766E+02</wgt>
<wgt id='3252'>0.79730E+02</wgt>
<wgt id='3253'>0.78986E+02</wgt>
<wgt id='3254'>0.78897E+02</wgt>
<wgt id='3255'>0.78518E+02</wgt>
<wgt id='3256'>0.79349E+02</wgt>
<wgt id='3257'>0.79073E+02</wgt>
<wgt id='3258'>0.78767E+02</wgt>
<wgt id='3259'>0.78386E+02</wgt>
<wgt id='3260'>0.79044E+02</wgt>
<wgt id='3261'>0.78849E+02</wgt>
<wgt id='3262'>0.79693E+02</wgt>
<wgt id='3263'>0.79961E+02</wgt>
<wgt id='3264'>0.79137E+02</wgt>
<wgt id='3265'>0.79468E+02</wgt>
<wgt id='3266'>0.79264E+02</wgt>
<wgt id='3267'>0.79045E+02</wgt>
<wgt id='3268'>0.78763E+02</wgt>
<wgt id='3269'>0.79125E+02</wgt>
<wgt id='3270'>0.80207E+02</wgt>
<wgt id='3271'>0.79358E+02</wgt>
<wgt id='3272'>0.79441E+02</wgt>
<wgt id='3273'>0.79102E+02</wgt>
<wgt id='3274'>0.78523E+02</wgt>
<wgt id='3275'>0.79698E+02</wgt>
<wgt id='3276'>0.78489E+02</wgt>
<wgt id='3277'>0.78958E+02</wgt>
<wgt id='3278'>0.79606E+02</wgt>
<wgt id='3279'>0.79510E+02</wgt>
<wgt id='3280'>0.78989E+02</wgt>
<wgt id='3281'>0.79586E+02</wgt>
<wgt id='3282'>0.79379E+02</wgt>
<wgt id='3283'>0.79257E+02</wgt>
<wgt id='3284'>0.78991E+02</wgt>
<wgt id='3285'>0.78936E+02</wgt>
<wgt id='3286'>0.78184E+02</wgt>
<wgt id='3287'>0.80000E+02</wgt>
<wgt id='3288'>0.78912E+02</wgt>
<wgt id='3289'>0.80169E+02</wgt>
<wgt id='3290'>0.78733E+02</wgt>
<wgt id='3291'>0.77977E+02</wgt>
<wgt id='3292'>0.78875E+02</wgt>
<wgt id='3293'>0.79070E+02</wgt>
<wgt id='3294'>0.78714E+02</wgt>
<wgt id='3295'>0.78844E+02</wgt>
<wgt id='3296'>0.80032E+02</wgt>
<wgt id='3297'>0.78999E+02</wgt>
<wgt id='3298'>0.78383E+02</wgt>
<wgt id='3299'>0.79343E+02</wgt>
<wgt id='3300'>0.79910E+02</wgt>
<wgt id='3301'>0.77746E+02</wgt>
<wgt id='3302'>0.80169E+02</wgt>
<wgt id='3400'>0.78667E+02</wgt>
<wgt id='3401'>0.78843E+02</wgt>
<wgt id='3402'>0.77398E+02</wgt>
<wgt id='3403'>0.79325E+02</wgt>
<wgt id='3404'>0.79915E+02</wgt>
<wgt id='3405'>0.79097E+02</wgt>
<wgt id='3406'>0.79755E+02</wgt>
<wgt id='3407'>0.78607E+02</wgt>
<wgt id='3408'>0.79608E+02</wgt>
<wgt id='3409'>0.79453E+02</wgt>
<wgt id='3410'>0.79245E+02</wgt>
<wgt id='3411'>0.79860E+02</wgt>
<wgt id='3412'>0.79498E+02</wgt>
<wgt id='3413'>0.78502E+02</wgt>
<wgt id='3414'>0.77996E+02</wgt>
<wgt id='3415'>0.78448E+02</wgt>
<wgt id='3416'>0.78153E+02</wgt>
<wgt id='3417'>0.78981E+02</wgt>
<wgt id='3418'>0.77942E+02</wgt>
<wgt id='3419'>0.78029E+02</wgt>
<wgt id='3420'>0.78359E+02</wgt>
<wgt id='3421'>0.78294E+02</wgt>
<wgt id='3422'>0.78572E+02</wgt>
<wgt id='3423'>0.79452E+02</wgt>
<wgt id='3424'>0.79244E+02</wgt>
<wgt id='3425'>0.78297E+02</wgt>
<wgt id='3426'>0.78310E+02</wgt>
<wgt id='3427'>0.77961E+02</wgt>
<wgt id='3428'>0.79147E+02</wgt>
<wgt id='3429'>0.77914E+02</wgt>
<wgt id='3430'>0.78647E+02</wgt>
<wgt id='3431'>0.78920E+02</wgt>
<wgt id='3432'>0.79491E+02</wgt>
<wgt id='3433'>0.78092E+02</wgt>
<wgt id='3434'>0.79440E+02</wgt>
<wgt id='3435'>0.79455E+02</wgt>
<wgt id='3436'>0.78469E+02</wgt>
<wgt id='3437'>0.79352E+02</wgt>
<wgt id='3438'>0.77981E+02</wgt>
<wgt id='3439'>0.77632E+02</wgt>
<wgt id='3440'>0.78938E+02</wgt>
<wgt id='3441'>0.78683E+02</wgt>
<wgt id='3442'>0.77632E+02</wgt>
<wgt id='3443'>0.78991E+02</wgt>
<wgt id='3444'>0.77987E+02</wgt>
<wgt id='3445'>0.78231E+02</wgt>
<wgt id='3446'>0.78796E+02</wgt>
<wgt id='3447'>0.78935E+02</wgt>
<wgt id='3448'>0.79912E+02</wgt>
<wgt id='3449'>0.79257E+02</wgt>
<wgt id='3450'>0.78424E+02</wgt>
<wgt id='3451'>0.79468E+02</wgt>
<wgt id='3452'>0.78522E+02</wgt>
<wgt id='3453'>0.77458E+02</wgt>
<wgt id='3454'>0.78542E+02</wgt>
<wgt id='3455'>0.79405E+02</wgt>
<wgt id='3456'>0.78719E+02</wgt>
<wgt id='3457'>0.79285E+02</wgt>
<wgt id='3458'>0.78385E+02</wgt>
<wgt id='3459'>0.78650E+02</wgt>
<wgt id='3460'>0.78470E+02</wgt>
<wgt id='3461'>0.77676E+02</wgt>
<wgt id='3462'>0.78869E+02</wgt>
<wgt id='3463'>0.77625E+02</wgt>
<wgt id='3464'>0.78953E+02</wgt>
<wgt id='3465'>0.79322E+02</wgt>
<wgt id='3466'>0.79091E+02</wgt>
<wgt id='3467'>0.78255E+02</wgt>
<wgt id='3468'>0.78150E+02</wgt>
<wgt id='3469'>0.78041E+02</wgt>
<wgt id='3470'>0.78164E+02</wgt>
<wgt id='3471'>0.78372E+02</wgt>
<wgt id='3472'>0.77483E+02</wgt>
<wgt id='3473'>0.79950E+02</wgt>
<wgt id='3474'>0.78122E+02</wgt>
<wgt id='3475'>0.79145E+02</wgt>
<wgt id='3476'>0.78568E+02</wgt>
<wgt id='3477'>0.77832E+02</wgt>
<wgt id='3478'>0.79752E+02</wgt>
<wgt id='3479'>0.78686E+02</wgt>
<wgt id='3480'>0.78876E+02</wgt>
<wgt id='3481'>0.79309E+02</wgt>
<wgt id='3482'>0.78896E+02</wgt>
<wgt id='3483'>0.78372E+02</wgt>
<wgt id='3484'>0.78088E+02</wgt>
<wgt id='3485'>0.78186E+02</wgt>
<wgt id='3486'>0.76791E+02</wgt>
<wgt id='3487'>0.78366E+02</wgt>
<wgt id='3488'>0.78736E+02</wgt>
<wgt id='3489'>0.77650E+02</wgt>
<wgt id='3490'>0.79468E+02</wgt>
<wgt id='3491'>0.79706E+02</wgt>
<wgt id='3492'>0.78492E+02</wgt>
<wgt id='3493'>0.79448E+02</wgt>
<wgt id='3494'>0.76718E+02</wgt>
<wgt id='3495'>0.79096E+02</wgt>
<wgt id='3496'>0.77821E+02</wgt>
<wgt id='3497'>0.78391E+02</wgt>
<wgt id='3498'>0.79618E+02</wgt>
<wgt id='3499'>0.78312E+02</wgt>
<wgt id='3500'>0.79858E+02</wgt>
</rwgt>
</event>
<event>
     13 322200  8.11039E+01  7.23197E+02 -1.00000E+00  9.35849E-02
      21    -1     0     0   503   504  0.000000000E+00  0.000000000E+00  6.540939679E+02  6.540939679E+02  0.000000000E+00  0.00000E+00  9.000E+00
      21    -1     0     0   504   505  0.000000000E+00  0.000000000E+00 -1.098926009E+03  1.098926009E+03  0.000000000E+00  0.00000E+00  9.000E+00
       6     2     1     2   502     0  3.197283907E+02  5.300927355E+02 -8.595460228E+01  6.481375845E+02  1.716670694E+02  0.00000E+00  9.000E+00
      -6     2     1     2     0   505  2.542776913E+02 -9.017199202E+01 -7.549432656E+01  3.281461237E+02  1.708576972E+02  0.00000E+00  9.000E+00
      21     1     1     2   503   502 -5.740060820E+02 -4.399207435E+02 -2.833831120E+02  7.767362685E+02  8.529922400E-06  0.00000E+00  9.000E+00
      24     2     3     3     0     0  1.253512731E+02  1.326854604E+02 -3.742758604E+01  2.030583994E+02  8.070635834E+01  0.00000E+00  9.000E+00
       5     1     3     3   502     0  1.943771176E+02  3.974072751E+02 -4.852701624E+01  4.450791851E+02  5.060000000E+00  0.00000E+00 -1.000E+00
     -24     2     4     4     0     0  2.323649063E+02 -2.662471398E+01 -3.707078494E+01  2.505548945E+02  8.186077807E+01  0.00000E+00  9.000E+00
      -5     1     4     4     0   505  2.191278498E+01 -6.354727804E+01 -3.842354163E+01  7.759122916E+01  5.060000000E+00  0.00000E+00  1.000E+00
     -11     1     6     6     0     0  6.096625387E+00  3.743668585E+01 -3.315028847E+01  5.037475474E+01  5.100000000E-04  0.00000E+00  1.000E+00
      12     1     6     6     0     0  1.192546477E+02  9.524877456E+01 -4.277297563E+00  1.526836446E+02  0.000000000E+00  0.00000E+00 -1.000E+00
      11     1     8     8     0     0  2.421208356E+01 -1.300577378E+01 -3.160725456E+01  4.188548296E+01  5.100000000E-04  0.00000E+00 -1.000E+00
     -12     1     8     8     0     0  2.081528227E+02 -1.361894020E+01 -5.463530379E+00  2.086694115E+02  0.000000000E+00  0.00000E+00  1.000E+00
#rwgt            2           1   7.9935425583675102               10       14257           0
<rwgt>
<wgt id='1001'>0.81104E+02</wgt>
<wgt id='1002'>0.69903E+02</wgt>
<wgt id='1003'>0.95220E+02</wgt>
<wgt id='1004'>0.63272E+02</wgt>
<wgt id='1005'>0.54534E+02</wgt>
<wgt id='1006'>0.74284E+02</wgt>
<wgt id='1007'>0.10643E+03</wgt>
<wgt id='1008'>0.91734E+02</wgt>
<wgt id='1009'>0.12496E+03</wgt>
<wgt id='2000'>0.81104E+02</wgt>
<wgt id='2001'>0.80797E+02</wgt>
<wgt id='2002'>0.81040E+02</wgt>
<wgt id='2003'>0.81058E+02</wgt>
<wgt id='2004'>0.81414E+02</wgt>
<wgt id='2005'>0.80549E+02</wgt>
<wgt id='2006'>0.81203E+02</wgt>
<wgt id='2007'>0.80744E+02</wgt>
<wgt id='2008'>0.80640E+02</wgt>
<wgt id='2009'>0.81312E+02</wgt>
<wgt id='2010'>0.80943E+02</wgt>
<wgt id='2011'>0.81682E+02</wgt>
<wgt id='2012'>0.81262E+02</wgt>
<wgt id='2013'>0.81288E+02</wgt>
<wgt id='2014'>0.81308E+02</wgt>
<wgt id='2015'>0.81296E+02</wgt>
<wgt id='2016'>0.81380E+02</wgt>
<wgt id='2017'>0.81477E+02</wgt>
<wgt id='2018'>0.80508E+02</wgt>
<wgt id='2019'>0.80185E+02</wgt>
<wgt id='2020'>0.81048E+02</wgt>
<wgt id='2021'>0.80917E+02</wgt>
<wgt id='2022'>0.81168E+02</wgt>
<wgt id='2023'>0.81320E+02</wgt>
<wgt id='2024'>0.80438E+02</wgt>
<wgt id='2025'>0.81287E+02</wgt>
<wgt id='2026'>0.81060E+02</wgt>
<wgt id='2027'>0.81555E+02</wgt>
<wgt id='2028'>0.80669E+02</wgt>
<wgt id='2029'>0.80808E+02</wgt>
<wgt id='2030'>0.81352E+02</wgt>
<wgt id='2031'>0.80614E+02</wgt>
<wgt id='2032'>0.80943E+02</wgt>
<wgt id='2033'>0.80931E+02</wgt>
<wgt id='2034'>0.80650E+02</wgt>
<wgt id='2035'>0.81233E+02</wgt>
<wgt id='2036'>0.81272E+02</wgt>
<wgt id='2037'>0.80891E+02</wgt>
<wgt id='2038'>0.80945E+02</wgt>
<wgt id='2039'>0.80961E+02</wgt>
<wgt id='2040'>0.80933E+02</wgt>
<wgt id='2041'>0.80861E+02</wgt>
<wgt id='2042'>0.81351E+02</wgt>
<wgt id='2043'>0.81117E+02</wgt>
<wgt id='2044'>0.81231E+02</wgt>
<wgt id='2045'>0.81087E+02</wgt>
<wgt id='2046'>0.80917E+02</wgt>
<wgt id='2047'>0.81160E+02</wgt>
<wgt id='2048'>0.81099E+02</wgt>
<wgt id='2049'>0.80980E+02</wgt>
<wgt id='2050'>0.80982E+02</wgt>
<wgt id='2051'>0.81001E+02</wgt>
<wgt id='2052'>0.81310E+02</wgt>
<wgt id='2053'>0.81107E+02</wgt>
<wgt id='2054'>0.81065E+02</wgt>
<wgt id='2055'>0.80978E+02</wgt>
<wgt id='2056'>0.81002E+02</wgt>
<wgt id='2057'>0.81145E+02</wgt>
<wgt id='2058'>0.81216E+02</wgt>
<wgt id='2059'>0.81096E+02</wgt>
<wgt id='2060'>0.81067E+02</wgt>
<wgt id='2061'>0.81030E+02</wgt>
<wgt id='2062'>0.81212E+02</wgt>
<wgt id='2063'>0.81127E+02</wgt>
<wgt id='2064'>0.81092E+02</wgt>
<wgt id='2065'>0.81211E+02</wgt>
<wgt id='2066'>0.81004E+02</wgt>
<wgt id='2067'>0.81027E+02</wgt>
<wgt id='2068'>0.81221E+02</wgt>
<wgt id='2069'>0.81087E+02</wgt>
<wgt id='2070'>0.81141E+02</wgt>
<wgt id='2071'>0.81035E+02</wgt>
<wgt id='2072'>0.81053E+02</wgt>
<wgt id='2073'>0.81130E+02</wgt>
<wgt id='2074'>0.81043E+02</wgt>
<wgt id='2075'>0.81086E+02</wgt>
<wgt id='2076'>0.81084E+02</wgt>
<wgt id='2077'>0.81162E+02</wgt>
<wgt id='2078'>0.81139E+02</wgt>
<wgt id='2079'>0.81069E+02</wgt>
<wgt id='2080'>0.81116E+02</wgt>
<wgt id='2081'>0.81084E+02</wgt>
<wgt id='2082'>0.81120E+02</wgt>
<wgt id='2083'>0.81207E+02</wgt>
<wgt id='2084'>0.81083E+02</wgt>
<wgt id='2085'>0.81133E+02</wgt>
<wgt id='2086'>0.81094E+02</wgt>
<wgt id='2087'>0.81118E+02</wgt>
<wgt id='2088'>0.81088E+02</wgt>
<wgt id='2089'>0.81059E+02</wgt>
<wgt id='2090'>0.81141E+02</wgt>
<wgt id='2091'>0.81118E+02</wgt>
<wgt id='2092'>0.81170E+02</wgt>
<wgt id='2093'>0.81056E+02</wgt>
<wgt id='2094'>0.81123E+02</wgt>
<wgt id='2095'>0.81157E+02</wgt>
<wgt id='2096'>0.81075E+02</wgt>
<wgt id='2097'>0.81144E+02</wgt>
<wgt id='2098'>0.81104E+02</wgt>
<wgt id='2099'>0.81123E+02</wgt>
<wgt id='2100'>0.81104E+02</wgt>
<wgt id='2101'>0.78551E+02</wgt>
<wgt id='2102'>0.84308E+02</wgt>
<wgt id='2200'>0.81005E+02</wgt>
<wgt id='2201'>0.66788E+02</wgt>
<wgt id='2202'>0.69881E+02</wgt>
<wgt id='2203'>0.72774E+02</wgt>
<wgt id='2204'>0.74728E+02</wgt>
<wgt id='2205'>0.79340E+02</wgt>
<wgt id='2206'>0.82787E+02</wgt>
<wgt id='2207'>0.87385E+02</wgt>
<wgt id='2208'>0.91093E+02</wgt>
<wgt id='2300'>0.87891E+02</wgt>
<wgt id='2301'>0.87832E+02</wgt>
<wgt id='2302'>0.88018E+02</wgt>
<wgt id='2303'>0.87564E+02</wgt>
<wgt id='2304'>0.88227E+02</wgt>
<wgt id='2305'>0.87590E+02</wgt>
<wgt id='2306'>0.87737E+02</wgt>
<wgt id='2307'>0.87751E+02</wgt>
<wgt id='2308'>0.87934E+02</wgt>
<wgt id='2309'>0.87922E+02</wgt>
<wgt id='2310'>0.87792E+02</wgt>
<wgt id='2311'>0.87674E+02</wgt>
<wgt id='2312'>0.87591E+02</wgt>
<wgt id='2313'>0.88515E+02</wgt>
<wgt id='2314'>0.87544E+02</wgt>
<wgt id='2315'>0.87529E+02</wgt>
<wgt id='2316'>0.87981E+02</wgt>
<wgt id='2317'>0.87515E+02</wgt>
<wgt id='2318'>0.87895E+02</wgt>
<wgt id='2319'>0.88277E+02</wgt>
<wgt id='2320'>0.88202E+02</wgt>
<wgt id='2321'>0.88326E+02</wgt>
<wgt id='2322'>0.87814E+02</wgt>
<wgt id='2323'>0.87892E+02</wgt>
<wgt id='2324'>0.87948E+02</wgt>
<wgt id='2325'>0.88014E+02</wgt>
<wgt id='2326'>0.87639E+02</wgt>
<wgt id='2327'>0.87987E+02</wgt>
<wgt id='2328'>0.87873E+02</wgt>
<wgt id='2329'>0.87656E+02</wgt>
<wgt id='2330'>0.88680E+02</wgt>
<wgt id='2331'>0.88218E+02</wgt>
<wgt id='2332'>0.87594E+02</wgt>
<wgt id='2333'>0.87690E+02</wgt>
<wgt id='2334'>0.87812E+02</wgt>
<wgt id='2335'>0.87412E+02</wgt>
<wgt id='2336'>0.87973E+02</wgt>
<wgt id='2337'>0.88300E+02</wgt>
<wgt id='2338'>0.87900E+02</wgt>
<wgt id='2339'>0.87985E+02</wgt>
<wgt id='2340'>0.88259E+02</wgt>
<wgt id='2341'>0.88105E+02</wgt>
<wgt id='2342'>0.87605E+02</wgt>
<wgt id='2343'>0.87578E+02</wgt>
<wgt id='2344'>0.87991E+02</wgt>
<wgt id='2345'>0.87896E+02</wgt>
<wgt id='2346'>0.88430E+02</wgt>
<wgt id='2347'>0.87916E+02</wgt>
<wgt id='2348'>0.87939E+02</wgt>
<wgt id='2349'>0.87864E+02</wgt>
<wgt id='2350'>0.87462E+02</wgt>
<wgt id='2351'>0.88221E+02</wgt>
<wgt id='2352'>0.87664E+02</wgt>
<wgt id='2353'>0.87888E+02</wgt>
<wgt id='2354'>0.88015E+02</wgt>
<wgt id='2355'>0.87793E+02</wgt>
<wgt id='2356'>0.87808E+02</wgt>
<wgt id='2357'>0.87924E+02</wgt>
<wgt id='2358'>0.87778E+02</wgt>
<wgt id='2359'>0.87801E+02</wgt>
<wgt id='2360'>0.88073E+02</wgt>
<wgt id='2361'>0.87897E+02</wgt>
<wgt id='2362'>0.87959E+02</wgt>
<wgt id='2363'>0.87770E+02</wgt>
<wgt id='2364'>0.87920E+02</wgt>
<wgt id='2365'>0.87756E+02</wgt>
<wgt id='2366'>0.87938E+02</wgt>
<wgt id='2367'>0.87709E+02</wgt>
<wgt id='2368'>0.87919E+02</wgt>
<wgt id='2369'>0.87770E+02</wgt>
<wgt id='2370'>0.87823E+02</wgt>
<wgt id='2371'>0.87850E+02</wgt>
<wgt id='2372'>0.87940E+02</wgt>
<wgt id='2373'>0.87870E+02</wgt>
<wgt id='2374'>0.88099E+02</wgt>
<wgt id='2375'>0.87953E+02</wgt>
<wgt id='2376'>0.87964E+02</wgt>
<wgt id='2377'>0.87923E+02</wgt>
<wgt id='2378'>0.87987E+02</wgt>
<wgt id='2379'>0.87730E+02</wgt>
<wgt id='2380'>0.87797E+02</wgt>
<wgt id='2381'>0.87830E+02</wgt>
<wgt id='2382'>0.87802E+02</wgt>
<wgt id='2383'>0.87871E+02</wgt>
<wgt id='2384'>0.87836E+02</wgt>
<wgt id='2385'>0.87963E+02</wgt>
<wgt id='2386'>0.87845E+02</wgt>
<wgt id='2387'>0.87790E+02</wgt>
<wgt id='2388'>0.87819E+02</wgt>
<wgt id='2389'>0.87875E+02</wgt>
<wgt id='2390'>0.87865E+02</wgt>
<wgt id='2391'>0.87841E+02</wgt>
<wgt id='2392'>0.87891E+02</wgt>
<wgt id='2393'>0.87937E+02</wgt>
<wgt id='2394'>0.87936E+02</wgt>
<wgt id='2395'>0.87905E+02</wgt>
<wgt id='2396'>0.87860E+02</wgt>
<wgt id='2397'>0.87858E+02</wgt>
<wgt id='2398'>0.87878E+02</wgt>
<wgt id='2399'>0.87923E+02</wgt>
<wgt id='2400'>0.87931E+02</wgt>
<wgt id='2401'>0.85067E+02</wgt>
<wgt id='2402'>0.90969E+02</wgt>
<wgt id='2500'>0.85253E+02</wgt>
<wgt id='2501'>0.92467E+02</wgt>
<wgt id='2600'>0.78511E+02</wgt>
<wgt id='2601'>0.78379E+02</wgt>
<wgt id='2602'>0.78301E+02</wgt>
<wgt id='2603'>0.78516E+02</wgt>
<wgt id='2604'>0.78268E+02</wgt>
<wgt id='2605'>0.78383E+02</wgt>
<wgt id='2606'>0.78767E+02</wgt>
<wgt id='2607'>0.78405E+02</wgt>
<wgt id='2608'>0.78748E+02</wgt>
<wgt id='2609'>0.78322E+02</wgt>
<wgt id='2610'>0.78424E+02</wgt>
<wgt id='2611'>0.78473E+02</wgt>
<wgt id='2612'>0.78488E+02</wgt>
<wgt id='2613'>0.78536E+02</wgt>
<wgt id='2614'>0.78378E+02</wgt>
<wgt id='2615'>0.78216E+02</wgt>
<wgt id='2616'>0.78593E+02</wgt>
<wgt id='2617'>0.78165E+02</wgt>
<wgt id='2618'>0.78507E+02</wgt>
<wgt id='2619'>0.78636E+02</wgt>
<wgt id='2620'>0.78243E+02</wgt>
<wgt id='2621'>0.78699E+02</wgt>
<wgt id='2622'>0.79029E+02</wgt>
<wgt id='2623'>0.78457E+02</wgt>
<wgt id='2624'>0.78415E+02</wgt>
<wgt id='2625'>0.78675E+02</wgt>
<wgt id='2626'>0.78604E+02</wgt>
<wgt id='2627'>0.78661E+02</wgt>
<wgt id='2628'>0.78447E+02</wgt>
<wgt id='2629'>0.78664E+02</wgt>
<wgt id='2630'>0.78826E+02</wgt>
<wgt id='2631'>0.78400E+02</wgt>
<wgt id='2632'>0.78236E+02</wgt>
<wgt id='2633'>0.78417E+02</wgt>
<wgt id='2634'>0.78401E+02</wgt>
<wgt id='2635'>0.78291E+02</wgt>
<wgt id='2636'>0.78562E+02</wgt>
<wgt id='2637'>0.78480E+02</wgt>
<wgt id='2638'>0.78484E+02</wgt>
<wgt id='2639'>0.78516E+02</wgt>
<wgt id='2640'>0.78522E+02</wgt>
<wgt id='2641'>0.78446E+02</wgt>
<wgt id='2642'>0.78521E+02</wgt>
<wgt id='2643'>0.78450E+02</wgt>
<wgt id='2644'>0.78491E+02</wgt>
<wgt id='2645'>0.78449E+02</wgt>
<wgt id='2646'>0.78523E+02</wgt>
<wgt id='2647'>0.78502E+02</wgt>
<wgt id='2648'>0.78502E+02</wgt>
<wgt id='2649'>0.78536E+02</wgt>
<wgt id='2650'>0.78529E+02</wgt>
<wgt id='2651'>0.76710E+02</wgt>
<wgt id='2652'>0.79908E+02</wgt>
<wgt id='2700'>0.75118E+02</wgt>
<wgt id='2701'>0.76710E+02</wgt>
<wgt id='2702'>0.77645E+02</wgt>
<wgt id='2703'>0.79298E+02</wgt>
<wgt id='2704'>0.79908E+02</wgt>
<wgt id='2705'>0.81815E+02</wgt>
<wgt id='2800'>0.81633E+02</wgt>
<wgt id='4000'>0.87606E+02</wgt>
<wgt id='4001'>0.87983E+02</wgt>
<wgt id='4002'>0.87976E+02</wgt>
<wgt id='4003'>0.85357E+02</wgt>
<wgt id='4004'>0.90969E+02</wgt>
<wgt id='4005'>0.88761E+02</wgt>
<wgt id='4006'>0.87112E+02</wgt>
<wgt id='4007'>0.87534E+02</wgt>
<wgt id='4008'>0.87864E+02</wgt>
<wgt id='4009'>0.86762E+02</wgt>
<wgt id='4010'>0.87628E+02</wgt>
<wgt id='4011'>0.88425E+02</wgt>
<wgt id='4012'>0.86590E+02</wgt>
<wgt id='4013'>0.88295E+02</wgt>
<wgt id='4014'>0.87359E+02</wgt>
<wgt id='4015'>0.88144E+02</wgt>
<wgt id='4016'>0.90162E+02</wgt>
<wgt id='4017'>0.87855E+02</wgt>
<wgt id='4018'>0.87421E+02</wgt>
<wgt id='4019'>0.87242E+02</wgt>
<wgt id='4020'>0.88689E+02</wgt>
<wgt id='4021'>0.88285E+02</wgt>
<wgt id='4022'>0.86482E+02</wgt>
<wgt id='4023'>0.89490E+02</wgt>
<wgt id='4024'>0.87529E+02</wgt>
<wgt id='4025'>0.87256E+02</wgt>
<wgt id='4026'>0.88866E+02</wgt>
<wgt id='4027'>0.89666E+02</wgt>
<wgt id='4028'>0.86222E+02</wgt>
<wgt id='4029'>0.90624E+02</wgt>
<wgt id='4030'>0.85400E+02</wgt>
<wgt id='4031'>0.87017E+02</wgt>
<wgt id='4032'>0.92374E+02</wgt>
<wgt id='4033'>0.89824E+02</wgt>
<wgt id='4034'>0.85691E+02</wgt>
<wgt id='4035'>0.88894E+02</wgt>
<wgt id='4036'>0.86898E+02</wgt>
<wgt id='4037'>0.92493E+02</wgt>
<wgt id='4038'>0.84264E+02</wgt>
<wgt id='4039'>0.90414E+02</wgt>
<wgt id='4040'>0.85312E+02</wgt>
<wgt id='4041'>0.88477E+02</wgt>
<wgt id='4042'>0.86659E+02</wgt>
<wgt id='4043'>0.87522E+02</wgt>
<wgt id='4044'>0.86166E+02</wgt>
<wgt id='4045'>0.86206E+02</wgt>
<wgt id='4046'>0.88556E+02</wgt>
<wgt id='4047'>0.89090E+02</wgt>
<wgt id='4048'>0.88022E+02</wgt>
<wgt id='4049'>0.88110E+02</wgt>
<wgt id='4050'>0.87624E+02</wgt>
<wgt id='4051'>0.86655E+02</wgt>
<wgt id='4052'>0.89111E+02</wgt>
<wgt id='4053'>0.87057E+02</wgt>
<wgt id='4054'>0.87116E+02</wgt>
<wgt id='4055'>0.88529E+02</wgt>
<wgt id='4056'>0.87060E+02</wgt>
<wgt id='4057'>0.86659E+02</wgt>
<wgt id='4058'>0.88140E+02</wgt>
<wgt id='4100'>0.86884E+02</wgt>
<wgt id='4101'>0.87156E+02</wgt>
<wgt id='4102'>0.88183E+02</wgt>
<wgt id='4103'>0.88839E+02</wgt>
<wgt id='4200'>0.84869E+02</wgt>
<wgt id='4201'>0.84815E+02</wgt>
<wgt id='4202'>0.85478E+02</wgt>
<wgt id='4203'>0.84201E+02</wgt>
<wgt id='4204'>0.85080E+02</wgt>
<wgt id='4205'>0.84696E+02</wgt>
<wgt id='4206'>0.85654E+02</wgt>
<wgt id='4207'>0.86240E+02</wgt>
<wgt id='4208'>0.84330E+02</wgt>
<wgt id='4209'>0.84732E+02</wgt>
<wgt id='4210'>0.85156E+02</wgt>
<wgt id='4211'>0.85430E+02</wgt>
<wgt id='4212'>0.84514E+02</wgt>
<wgt id='4213'>0.85137E+02</wgt>
<wgt id='4214'>0.84518E+02</wgt>
<wgt id='4215'>0.84772E+02</wgt>
<wgt id='4216'>0.85629E+02</wgt>
<wgt id='4217'>0.84988E+02</wgt>
<wgt id='4218'>0.84664E+02</wgt>
<wgt id='4219'>0.84736E+02</wgt>
<wgt id='4220'>0.85375E+02</wgt>
<wgt id='4221'>0.84701E+02</wgt>
<wgt id='4222'>0.85781E+02</wgt>
<wgt id='4223'>0.82647E+02</wgt>
<wgt id='4224'>0.84593E+02</wgt>
<wgt id='4225'>0.84662E+02</wgt>
<wgt id='4226'>0.86230E+02</wgt>
<wgt id='4227'>0.86591E+02</wgt>
<wgt id='4228'>0.83506E+02</wgt>
<wgt id='4229'>0.82048E+02</wgt>
<wgt id='4230'>0.87430E+02</wgt>
<wgt id='4231'>0.86124E+02</wgt>
<wgt id='4232'>0.83036E+02</wgt>
<wgt id='4233'>0.85367E+02</wgt>
<wgt id='4234'>0.83193E+02</wgt>
<wgt id='4235'>0.86497E+02</wgt>
<wgt id='4236'>0.83447E+02</wgt>
<wgt id='4237'>0.87300E+02</wgt>
<wgt id='4238'>0.81171E+02</wgt>
<wgt id='4239'>0.83436E+02</wgt>
<wgt id='4240'>0.85983E+02</wgt>
<wgt id='4241'>0.85709E+02</wgt>
<wgt id='4242'>0.83958E+02</wgt>
<wgt id='4243'>0.85343E+02</wgt>
<wgt id='4244'>0.85074E+02</wgt>
<wgt id='4245'>0.85713E+02</wgt>
<wgt id='4246'>0.83216E+02</wgt>
<wgt id='4247'>0.83751E+02</wgt>
<wgt id='4248'>0.85368E+02</wgt>
<wgt id='4249'>0.86555E+02</wgt>
<wgt id='4250'>0.83139E+02</wgt>
<wgt id='4251'>0.88758E+02</wgt>
<wgt id='4252'>0.82543E+02</wgt>
<wgt id='4253'>0.86813E+02</wgt>
<wgt id='4254'>0.82628E+02</wgt>
<wgt id='4255'>0.87806E+02</wgt>
<wgt id='4256'>0.83741E+02</wgt>
<wgt id='4257'>0.83368E+02</wgt>
<wgt id='4258'>0.85278E+02</wgt>
<wgt id='4300'>0.86508E+02</wgt>
<wgt id='4301'>0.87473E+02</wgt>
<wgt id='5000'>0.86098E+02</wgt>
<wgt id='5001'>0.86175E+02</wgt>
<wgt id='5002'>0.85999E+02</wgt>
<wgt id='5003'>0.86118E+02</wgt>
<wgt id='5004'>0.86079E+02</wgt>
<wgt id='5005'>0.86142E+02</wgt>
<wgt id='5006'>0.86026E+02</wgt>
<wgt id='5007'>0.86230E+02</wgt>
<wgt id='5008'>0.85991E+02</wgt>
<wgt id='5009'>0.86252E+02</wgt>
<wgt id='5010'>0.85939E+02</wgt>
<wgt id='5011'>0.86477E+02</wgt>
<wgt id='5012'>0.85734E+02</wgt>
<wgt id='5013'>0.86345E+02</wgt>
<wgt id='5014'>0.85922E+02</wgt>
<wgt id='5015'>0.85629E+02</wgt>
<wgt id='5016'>0.85629E+02</wgt>
<wgt id='5017'>0.86305E+02</wgt>
<wgt id='5018'>0.85960E+02</wgt>
<wgt id='5019'>0.86272E+02</wgt>
<wgt id='5020'>0.85857E+02</wgt>
<wgt id='5021'>0.86146E+02</wgt>
<wgt id='5022'>0.86027E+02</wgt>
<wgt id='5023'>0.86149E+02</wgt>
<wgt id='5024'>0.85976E+02</wgt>
<wgt id='5025'>0.86160E+02</wgt>
<wgt id='5026'>0.86018E+02</wgt>
<wgt id='5027'>0.86212E+02</wgt>
<wgt id='5028'>0.85793E+02</wgt>
<wgt id='5029'>0.87941E+02</wgt>
<wgt id='5030'>0.85075E+02</wgt>
<wgt id='5031'>0.84964E+02</wgt>
<wgt id='5032'>0.89654E+02</wgt>
<wgt id='5033'>0.85901E+02</wgt>
<wgt id='5034'>0.86309E+02</wgt>
<wgt id='5035'>0.86136E+02</wgt>
<wgt id='5036'>0.86046E+02</wgt>
<wgt id='5037'>0.85527E+02</wgt>
<wgt id='5038'>0.86418E+02</wgt>
<wgt id='5039'>0.86264E+02</wgt>
<wgt id='5040'>0.85670E+02</wgt>
<wgt id='5041'>0.85099E+02</wgt>
<wgt id='5042'>0.87142E+02</wgt>
<wgt id='5043'>0.86517E+02</wgt>
<wgt id='5044'>0.85720E+02</wgt>
<wgt id='5045'>0.86584E+02</wgt>
<wgt id='5046'>0.85659E+02</wgt>
<wgt id='5047'>0.86284E+02</wgt>
<wgt id='5048'>0.85283E+02</wgt>
<wgt id='5049'>0.85944E+02</wgt>
<wgt id='5050'>0.86505E+02</wgt>
<wgt id='5051'>0.86454E+02</wgt>
<wgt id='5052'>0.85914E+02</wgt>
<wgt id='5053'>0.86858E+02</wgt>
<wgt id='5054'>0.86304E+02</wgt>
<wgt id='5055'>0.86039E+02</wgt>
<wgt id='5056'>0.86230E+02</wgt>
<wgt id='5057'>0.85557E+02</wgt>
<wgt id='5058'>0.86482E+02</wgt>
<wgt id='5059'>0.85814E+02</wgt>
<wgt id='5060'>0.86250E+02</wgt>
<wgt id='5061'>0.86540E+02</wgt>
<wgt id='5062'>0.86577E+02</wgt>
<wgt id='5063'>0.86514E+02</wgt>
<wgt id='5064'>0.86281E+02</wgt>
<wgt id='5100'>0.86098E+02</wgt>
<wgt id='5101'>0.86029E+02</wgt>
<wgt id='6000'>0.85004E+02</wgt>
<wgt id='6001'>0.84187E+02</wgt>
<wgt id='6002'>0.83421E+02</wgt>
<wgt id='6003'>0.84512E+02</wgt>
<wgt id='6004'>0.85927E+02</wgt>
<wgt id='6005'>0.84010E+02</wgt>
<wgt id='6006'>0.84954E+02</wgt>
<wgt id='6007'>0.83945E+02</wgt>
<wgt id='6008'>0.86921E+02</wgt>
<wgt id='6009'>0.84709E+02</wgt>
<wgt id='6010'>0.85309E+02</wgt>
<wgt id='6011'>0.84958E+02</wgt>
<wgt id='6012'>0.85290E+02</wgt>
<wgt id='6013'>0.84418E+02</wgt>
<wgt id='6014'>0.84312E+02</wgt>
<wgt id='6015'>0.83727E+02</wgt>
<wgt id='6016'>0.85795E+02</wgt>
<wgt id='6017'>0.84339E+02</wgt>
<wgt id='6018'>0.83859E+02</wgt>
<wgt id='6019'>0.85297E+02</wgt>
<wgt id='6020'>0.85164E+02</wgt>
<wgt id='6021'>0.84826E+02</wgt>
<wgt id='6022'>0.85632E+02</wgt>
<wgt id='6023'>0.84941E+02</wgt>
<wgt id='6024'>0.85201E+02</wgt>
<wgt id='6025'>0.85772E+02</wgt>
<wgt id='6026'>0.84775E+02</wgt>
<wgt id='6027'>0.85050E+02</wgt>
<wgt id='6028'>0.84228E+02</wgt>
<wgt id='6029'>0.84547E+02</wgt>
<wgt id='6030'>0.83783E+02</wgt>
<wgt id='6031'>0.84565E+02</wgt>
<wgt id='6032'>0.84959E+02</wgt>
<wgt id='6033'>0.84868E+02</wgt>
<wgt id='6034'>0.85666E+02</wgt>
<wgt id='6035'>0.85108E+02</wgt>
<wgt id='6036'>0.86213E+02</wgt>
<wgt id='6037'>0.84975E+02</wgt>
<wgt id='6038'>0.84850E+02</wgt>
<wgt id='6039'>0.85507E+02</wgt>
<wgt id='6040'>0.84983E+02</wgt>
<wgt id='6041'>0.82195E+02</wgt>
<wgt id='6042'>0.85966E+02</wgt>
<wgt id='7000'>0.80666E+02</wgt>
<wgt id='7001'>0.79320E+02</wgt>
<wgt id='7002'>0.79518E+02</wgt>
<wgt id='7003'>0.79323E+02</wgt>
<wgt id='7004'>0.79516E+02</wgt>
<wgt id='7005'>0.79362E+02</wgt>
<wgt id='7006'>0.79477E+02</wgt>
<wgt id='7007'>0.79918E+02</wgt>
<wgt id='7008'>0.78936E+02</wgt>
<wgt id='7009'>0.78797E+02</wgt>
<wgt id='7010'>0.80062E+02</wgt>
<wgt id='7011'>0.79680E+02</wgt>
<wgt id='7012'>0.79172E+02</wgt>
<wgt id='7013'>0.79537E+02</wgt>
<wgt id='7014'>0.79295E+02</wgt>
<wgt id='7015'>0.79750E+02</wgt>
<wgt id='7016'>0.78865E+02</wgt>
<wgt id='7017'>0.79259E+02</wgt>
<wgt id='7018'>0.79609E+02</wgt>
<wgt id='7019'>0.80030E+02</wgt>
<wgt id='7020'>0.78846E+02</wgt>
<wgt id='7021'>0.81724E+02</wgt>
<wgt id='7022'>0.77327E+02</wgt>
<wgt id='7023'>0.77693E+02</wgt>
<wgt id='7024'>0.81190E+02</wgt>
<wgt id='7025'>0.77078E+02</wgt>
<wgt id='7026'>0.81868E+02</wgt>
<wgt id='7027'>0.78267E+02</wgt>
<wgt id='7028'>0.80626E+02</wgt>
<wgt id='8000'>0.81149E+02</wgt>
<wgt id='8001'>0.81149E+02</wgt>
<wgt id='8002'>0.81173E+02</wgt>
<wgt id='8003'>0.81142E+02</wgt>
<wgt id='8004'>0.81147E+02</wgt>
<wgt id='8005'>0.81037E+02</wgt>
<wgt id='8006'>0.81364E+02</wgt>
<wgt id='8007'>0.81531E+02</wgt>
<wgt id='8008'>0.81320E+02</wgt>
<wgt id='8009'>0.81467E+02</wgt>
<wgt id='8010'>0.80992E+02</wgt>
<wgt id='8011'>0.81244E+02</wgt>
<wgt id='8012'>0.80735E+02</wgt>
<wgt id='8013'>0.80860E+02</wgt>
<wgt id='8014'>0.81544E+02</wgt>
<wgt id='8015'>0.81104E+02</wgt>
<wgt id='8016'>0.81338E+02</wgt>
<wgt id='8017'>0.81325E+02</wgt>
<wgt id='8018'>0.81670E+02</wgt>
<wgt id='8019'>0.80774E+02</wgt>
<wgt id='8020'>0.81870E+02</wgt>
<wgt id='8021'>0.80876E+02</wgt>
<wgt id='8022'>0.82453E+02</wgt>
<wgt id='8023'>0.80567E+02</wgt>
<wgt id='8024'>0.80019E+02</wgt>
<wgt id='8025'>0.80194E+02</wgt>
<wgt id='8026'>0.81014E+02</wgt>
<wgt id='8027'>0.81539E+02</wgt>
<wgt id='8028'>0.81122E+02</wgt>
<wgt id='8029'>0.84190E+02</wgt>
<wgt id='3000'>0.81104E+02</wgt>
<wgt id='3001'>0.84793E+02</wgt>
<wgt id='3002'>0.79984E+02</wgt>
<wgt id='3003'>0.80938E+02</wgt>
<wgt id='3004'>0.82271E+02</wgt>
<wgt id='3005'>0.81924E+02</wgt>
<wgt id='3006'>0.82837E+02</wgt>
<wgt id='3007'>0.78600E+02</wgt>
<wgt id='3008'>0.78129E+02</wgt>
<wgt id='3009'>0.79057E+02</wgt>
<wgt id='3010'>0.86574E+02</wgt>
<wgt id='3011'>0.81271E+02</wgt>
<wgt id='3012'>0.81348E+02</wgt>
<wgt id='3013'>0.80118E+02</wgt>
<wgt id='3014'>0.81892E+02</wgt>
<wgt id='3015'>0.77101E+02</wgt>
<wgt id='3016'>0.79397E+02</wgt>
<wgt id='3017'>0.81088E+02</wgt>
<wgt id='3018'>0.79325E+02</wgt>
<wgt id='3019'>0.78795E+02</wgt>
<wgt id='3020'>0.78805E+02</wgt>
<wgt id='3021'>0.80000E+02</wgt>
<wgt id='3022'>0.77847E+02</wgt>
<wgt id='3023'>0.78880E+02</wgt>
<wgt id='3024'>0.82075E+02</wgt>
<wgt id='3025'>0.79205E+02</wgt>
<wgt id='3026'>0.78836E+02</wgt>
<wgt id='3027'>0.82520E+02</wgt>
<wgt id='3028'>0.79016E+02</wgt>
<wgt id='3029'>0.80940E+02</wgt>
<wgt id='3030'>0.80131E+02</wgt>
<wgt id='3031'>0.83409E+02</wgt>
<wgt id='3032'>0.80118E+02</wgt>
<wgt id='3033'>0.80021E+02</wgt>
<wgt id='3034'>0.84146E+02</wgt>
<wgt id='3035'>0.80571E+02</wgt>
<wgt id='3036'>0.81045E+02</wgt>
<wgt id='3037'>0.78095E+02</wgt>
<wgt id='3038'>0.81465E+02</wgt>
<wgt id='3039'>0.80633E+02</wgt>
<wgt id='3040'>0.81057E+02</wgt>
<wgt id='3041'>0.80842E+02</wgt>
<wgt id='3042'>0.83954E+02</wgt>
<wgt id='3043'>0.83504E+02</wgt>
<wgt id='3044'>0.84497E+02</wgt>
<wgt id='3045'>0.81086E+02</wgt>
<wgt id='3046'>0.81086E+02</wgt>
<wgt id='3047'>0.84046E+02</wgt>
<wgt id='3048'>0.84204E+02</wgt>
<wgt id='3049'>0.80159E+02</wgt>
<wgt id='3050'>0.81789E+02</wgt>
<wgt id='3051'>0.81226E+02</wgt>
<wgt id='3052'>0.79521E+02</wgt>
<wgt id='3053'>0.82843E+02</wgt>
<wgt id='3054'>0.79506E+02</wgt>
<wgt id='3055'>0.81960E+02</wgt>
<wgt id='3056'>0.81143E+02</wgt>
<wgt id='3057'>0.79228E+02</wgt>
<wgt id='3058'>0.83874E+02</wgt>
<wgt id='3059'>0.76977E+02</wgt>
<wgt id='3060'>0.80039E+02</wgt>
<wgt id='3061'>0.81226E+02</wgt>
<wgt id='3062'>0.81934E+02</wgt>
<wgt id='3063'>0.81267E+02</wgt>
<wgt id='3064'>0.83928E+02</wgt>
<wgt id='3065'>0.78565E+02</wgt>
<wgt id='3066'>0.83019E+02</wgt>
<wgt id='3067'>0.81582E+02</wgt>
<wgt id='3068'>0.78835E+02</wgt>
<wgt id='3069'>0.81494E+02</wgt>
<wgt id='3070'>0.84752E+02</wgt>
<wgt id='3071'>0.79489E+02</wgt>
<wgt id='3072'>0.79225E+02</wgt>
<wgt id='3073'>0.79754E+02</wgt>
<wgt id='3074'>0.77698E+02</wgt>
<wgt id='3075'>0.81044E+02</wgt>
<wgt id='3076'>0.83121E+02</wgt>
<wgt id='3077'>0.83061E+02</wgt>
<wgt id='3078'>0.78804E+02</wgt>
<wgt id='3079'>0.80611E+02</wgt>
<wgt id='3080'>0.87376E+02</wgt>
<wgt id='3081'>0.84122E+02</wgt>
<wgt id='3082'>0.79397E+02</wgt>
<wgt id='3083'>0.82572E+02</wgt>
<wgt id='3084'>0.78964E+02</wgt>
<wgt id='3085'>0.79176E+02</wgt>
<wgt id='3086'>0.86893E+02</wgt>
<wgt id='3087'>0.78796E+02</wgt>
<wgt id='3088'>0.82721E+02</wgt>
<wgt id='3089'>0.82002E+02</wgt>
<wgt id='3090'>0.82557E+02</wgt>
<wgt id='3091'>0.80615E+02</wgt>
<wgt id='3092'>0.81108E+02</wgt>
<wgt id='3093'>0.80078E+02</wgt>
<wgt id='3094'>0.82571E+02</wgt>
<wgt id='3095'>0.80696E+02</wgt>
<wgt id='3096'>0.80352E+02</wgt>
<wgt id='3097'>0.88724E+02</wgt>
<wgt id='3098'>0.80745E+02</wgt>
<wgt id='3099'>0.78033E+02</wgt>
<wgt id='3100'>0.78867E+02</wgt>
<wgt id='3200'>0.78735E+02</wgt>
<wgt id='3201'>0.78793E+02</wgt>
<wgt id='3202'>0.76359E+02</wgt>
<wgt id='3203'>0.80219E+02</wgt>
<wgt id='3204'>0.78616E+02</wgt>
<wgt id='3205'>0.79578E+02</wgt>
<wgt id='3206'>0.80086E+02</wgt>
<wgt id='3207'>0.79515E+02</wgt>
<wgt id='3208'>0.78733E+02</wgt>
<wgt id='3209'>0.78810E+02</wgt>
<wgt id='3210'>0.78783E+02</wgt>
<wgt id='3211'>0.77505E+02</wgt>
<wgt id='3212'>0.78907E+02</wgt>
<wgt id='3213'>0.80271E+02</wgt>
<wgt id='3214'>0.79728E+02</wgt>
<wgt id='3215'>0.78492E+02</wgt>
<wgt id='3216'>0.80627E+02</wgt>
<wgt id='3217'>0.78756E+02</wgt>
<wgt id='3218'>0.79941E+02</wgt>
<wgt id='3219'>0.77253E+02</wgt>
<wgt id='3220'>0.78676E+02</wgt>
<wgt id='3221'>0.78250E+02</wgt>
<wgt id='3222'>0.80616E+02</wgt>
<wgt id='3223'>0.78762E+02</wgt>
<wgt id='3224'>0.78827E+02</wgt>
<wgt id='3225'>0.79675E+02</wgt>
<wgt id='3226'>0.78568E+02</wgt>
<wgt id='3227'>0.78572E+02</wgt>
<wgt id='3228'>0.78361E+02</wgt>
<wgt id='3229'>0.79792E+02</wgt>
<wgt id='3230'>0.79075E+02</wgt>
<wgt id='3231'>0.78940E+02</wgt>
<wgt id='3232'>0.79004E+02</wgt>
<wgt id='3233'>0.79828E+02</wgt>
<wgt id='3234'>0.76257E+02</wgt>
<wgt id='3235'>0.78704E+02</wgt>
<wgt id='3236'>0.79435E+02</wgt>
<wgt id='3237'>0.79033E+02</wgt>
<wgt id='3238'>0.78556E+02</wgt>
<wgt id='3239'>0.77284E+02</wgt>
<wgt id='3240'>0.75829E+02</wgt>
<wgt id='3241'>0.79628E+02</wgt>
<wgt id='3242'>0.80057E+02</wgt>
<wgt id='3243'>0.79354E+02</wgt>
<wgt id='3244'>0.79471E+02</wgt>
<wgt id='3245'>0.79261E+02</wgt>
<wgt id='3246'>0.76733E+02</wgt>
<wgt id='3247'>0.77991E+02</wgt>
<wgt id='3248'>0.78773E+02</wgt>
<wgt id='3249'>0.76925E+02</wgt>
<wgt id='3250'>0.77330E+02</wgt>
<wgt id='3251'>0.78044E+02</wgt>
<wgt id='3252'>0.80670E+02</wgt>
<wgt id='3253'>0.78986E+02</wgt>
<wgt id='3254'>0.77466E+02</wgt>
<wgt id='3255'>0.77157E+02</wgt>
<wgt id='3256'>0.79610E+02</wgt>
<wgt id='3257'>0.77971E+02</wgt>
<wgt id='3258'>0.77322E+02</wgt>
<wgt id='3259'>0.77931E+02</wgt>
<wgt id='3260'>0.79905E+02</wgt>
<wgt id='3261'>0.78695E+02</wgt>
<wgt id='3262'>0.80671E+02</wgt>
<wgt id='3263'>0.80345E+02</wgt>
<wgt id='3264'>0.78809E+02</wgt>
<wgt id='3265'>0.78347E+02</wgt>
<wgt id='3266'>0.79033E+02</wgt>
<wgt id='3267'>0.78533E+02</wgt>
<wgt id='3268'>0.76234E+02</wgt>
<wgt id='3269'>0.78187E+02</wgt>
<wgt id='3270'>0.80013E+02</wgt>
<wgt id='3271'>0.78268E+02</wgt>
<wgt id='3272'>0.78750E+02</wgt>
<wgt id='3273'>0.78466E+02</wgt>
<wgt id='3274'>0.78240E+02</wgt>
<wgt id='3275'>0.80201E+02</wgt>
<wgt id='3276'>0.76665E+02</wgt>
<wgt id='3277'>0.77931E+02</wgt>
<wgt id='3278'>0.79991E+02</wgt>
<wgt id='3279'>0.79368E+02</wgt>
<wgt id='3280'>0.78769E+02</wgt>
<wgt id='3281'>0.80344E+02</wgt>
<wgt id='3282'>0.78599E+02</wgt>
<wgt id='3283'>0.79738E+02</wgt>
<wgt id='3284'>0.78099E+02</wgt>
<wgt id='3285'>0.79123E+02</wgt>
<wgt id='3286'>0.76667E+02</wgt>
<wgt id='3287'>0.81325E+02</wgt>
<wgt id='3288'>0.76679E+02</wgt>
<wgt id='3289'>0.78634E+02</wgt>
<wgt id='3290'>0.77593E+02</wgt>
<wgt id='3291'>0.77790E+02</wgt>
<wgt id='3292'>0.78456E+02</wgt>
<wgt id='3293'>0.79428E+02</wgt>
<wgt id='3294'>0.78838E+02</wgt>
<wgt id='3295'>0.78273E+02</wgt>
<wgt id='3296'>0.79713E+02</wgt>
<wgt id='3297'>0.78507E+02</wgt>
<wgt id='3298'>0.76826E+02</wgt>
<wgt id='3299'>0.79633E+02</wgt>
<wgt id='3300'>0.80496E+02</wgt>
<wgt id='3301'>0.76710E+02</wgt>
<wgt id='3302'>0.79908E+02</wgt>
<wgt id='3400'>0.78902E+02</wgt>
<wgt id='3401'>0.80174E+02</wgt>
<wgt id='3402'>0.76523E+02</wgt>
<wgt id='3403'>0.78996E+02</wgt>
<wgt id='3404'>0.79489E+02</wgt>
<wgt id='3405'>0.80194E+02</wgt>
<wgt id='3406'>0.79534E+02</wgt>
<wgt id='3407'>0.78188E+02</wgt>
<wgt id='3408'>0.78587E+02</wgt>
<wgt id='3409'>0.79058E+02</wgt>
<wgt id='3410'>0.81235E+02</wgt>
<wgt id='3411'>0.79589E+02</wgt>
<wgt id='3412'>0.78830E+02</wgt>
<wgt id='3413'>0.78466E+02</wgt>
<wgt id='3414'>0.79124E+02</wgt>
<wgt id='3415'>0.79246E+02</wgt>
<wgt id='3416'>0.79324E+02</wgt>
<wgt id='3417'>0.78207E+02</wgt>
<wgt id='3418'>0.78459E+02</wgt>
<wgt id='3419'>0.77988E+02</wgt>
<wgt id='3420'>0.78133E+02</wgt>
<wgt id='3421'>0.78638E+02</wgt>
<wgt id='3422'>0.76649E+02</wgt>
<wgt id='3423'>0.81545E+02</wgt>
<wgt id='3424'>0.79338E+02</wgt>
<wgt id='3425'>0.79069E+02</wgt>
<wgt id='3426'>0.77407E+02</wgt>
<wgt id='3427'>0.78089E+02</wgt>
<wgt id='3428'>0.77279E+02</wgt>
<wgt id='3429'>0.77863E+02</wgt>
<wgt id='3430'>0.77651E+02</wgt>
<wgt id='3431'>0.78676E+02</wgt>
<wgt id='3432'>0.79077E+02</wgt>
<wgt id='3433'>0.79590E+02</wgt>
<wgt id='3434'>0.81622E+02</wgt>
<wgt id='3435'>0.81452E+02</wgt>
<wgt id='3436'>0.78636E+02</wgt>
<wgt id='3437'>0.79490E+02</wgt>
<wgt id='3438'>0.78268E+02</wgt>
<wgt id='3439'>0.76543E+02</wgt>
<wgt id='3440'>0.79778E+02</wgt>
<wgt id='3441'>0.79961E+02</wgt>
<wgt id='3442'>0.80024E+02</wgt>
<wgt id='3443'>0.80084E+02</wgt>
<wgt id='3444'>0.78635E+02</wgt>
<wgt id='3445'>0.77962E+02</wgt>
<wgt id='3446'>0.80084E+02</wgt>
<wgt id='3447'>0.77652E+02</wgt>
<wgt id='3448'>0.79729E+02</wgt>
<wgt id='3449'>0.79766E+02</wgt>
<wgt id='3450'>0.78662E+02</wgt>
<wgt id='3451'>0.78215E+02</wgt>
<wgt id='3452'>0.78495E+02</wgt>
<wgt id='3453'>0.76453E+02</wgt>
<wgt id='3454'>0.79450E+02</wgt>
<wgt id='3455'>0.79527E+02</wgt>
<wgt id='3456'>0.78538E+02</wgt>
<wgt id='3457'>0.79790E+02</wgt>
<wgt id='3458'>0.78317E+02</wgt>
<wgt id='3459'>0.79738E+02</wgt>
<wgt id='3460'>0.79124E+02</wgt>
<wgt id='3461'>0.78344E+02</wgt>
<wgt id='3462'>0.80102E+02</wgt>
<wgt id='3463'>0.78380E+02</wgt>
<wgt id='3464'>0.78148E+02</wgt>
<wgt id='3465'>0.79974E+02</wgt>
<wgt id='3466'>0.80357E+02</wgt>
<wgt id='3467'>0.77986E+02</wgt>
<wgt id='3468'>0.80185E+02</wgt>
<wgt id='3469'>0.77236E+02</wgt>
<wgt id='3470'>0.77559E+02</wgt>
<wgt id='3471'>0.77767E+02</wgt>
<wgt id='3472'>0.76778E+02</wgt>
<wgt id='3473'>0.81312E+02</wgt>
<wgt id='3474'>0.78524E+02</wgt>
<wgt id='3475'>0.79796E+02</wgt>
<wgt id='3476'>0.78000E+02</wgt>
<wgt id='3477'>0.78317E+02</wgt>
<wgt id='3478'>0.81065E+02</wgt>
<wgt id='3479'>0.76674E+02</wgt>
<wgt id='3480'>0.79026E+02</wgt>
<wgt id='3481'>0.79320E+02</wgt>
<wgt id='3482'>0.80488E+02</wgt>
<wgt id='3483'>0.79833E+02</wgt>
<wgt id='3484'>0.78833E+02</wgt>
<wgt id='3485'>0.77599E+02</wgt>
<wgt id='3486'>0.77296E+02</wgt>
<wgt id='3487'>0.78359E+02</wgt>
<wgt id='3488'>0.77199E+02</wgt>
<wgt id='3489'>0.78026E+02</wgt>
<wgt id='3490'>0.81582E+02</wgt>
<wgt id='3491'>0.79655E+02</wgt>
<wgt id='3492'>0.78304E+02</wgt>
<wgt id='3493'>0.80423E+02</wgt>
<wgt id='3494'>0.76369E+02</wgt>
<wgt id='3495'>0.80475E+02</wgt>
<wgt id='3496'>0.78026E+02</wgt>
<wgt id='3497'>0.79228E+02</wgt>
<wgt id='3498'>0.79136E+02</wgt>
<wgt id='3499'>0.78938E+02</wgt>
<wgt id='3500'>0.79821E+02</wgt>
</rwgt>
</event>
<event>
     13 322200  8.11039E+01  2.70465E+00 -1.00000E+00  3.00675E-01
      -2    -1     0     0     0   512  0.000000000E+00  0.000000000E+00  9.260123210E+01  9.260123210E+01  0.000000000E+00  0.00000E+00  9.000E+00
       2    -1     0     0   503     0  0.000000000E+00  0.000000000E+00 -5.439624799E+02  5.439624799E+02  0.000000000E+00  0.00000E+00  9.000E+00
       6     2     1     2   502     0  5.880283506E+01  1.185951215E+02 -2.244339965E+02  3.126934225E+02  1.728698397E+02  0.00000E+00  9.000E+00
      -6     2     1     2     0   512 -5.949166397E+01 -1.159796572E+02 -1.925437967E+02  2.893806230E+02  1.722715657E+02  0.00000E+00  9.000E+00
      21     1     1     2   503   502  6.888289099E-01 -2.615464325E+00 -3.438345463E+01  3.448966644E+01  0.000000000E+00  0.00000E+00  9.000E+00
      24     2     3     3     0     0  8.458043286E+01  7.022920637E+01 -2.185644163E+02  2.573418022E+02  7.980230608E+01  0.00000E+00  9.000E+00
       5     1     3     3   502     0 -2.577759780E+01  4.836591516E+01 -5.869580168E+00  5.535162030E+01  5.060000000E+00  0.00000E+00 -1.000E+00
     -24     2     4     4     0     0 -2.137136711E+01 -1.407506756E+02 -1.871651489E+02  2.433231173E+02  6.251286619E+01  0.00000E+00  9.000E+00
      -5     1     4     4     0   512 -3.812029686E+01  2.477101834E+01 -5.378647793E+00  4.605750573E+01  5.060000000E+00  0.00000E+00  1.000E+00
     -15     1     6     6     0     0  6.372553238E-01  8.130706715E+00  5.600190760E+00  1.005158453E+01  1.777000000E+00  0.00000E+00  1.000E+00
      16     1     6     6     0     0  8.394317754E+01  6.209849966E+01 -2.241646071E+02  2.472902177E+02  0.000000000E+00  0.00000E+00 -1.000E+00
      15     1     8     8     0     0 -7.889097137E+00 -1.286719216E+01 -6.213790888E+01  6.396936717E+01  1.777000000E+00  0.00000E+00 -1.000E+00
     -16     1     8     8     0     0 -1.348226997E+01 -1.278834834E+02 -1.250272400E+02  1.793537501E+02  0.000000000E+00  0.00000E+00  1.000E+00
#rwgt            1           5   50.621930958983590               10       14845           0
<rwgt>
<wgt id='1001'>0.81104E+02</wgt>
<wgt id='1002'>0.87654E+02</wgt>
<wgt id='1003'>0.75281E+02</wgt>
<wgt id='1004'>0.75428E+02</wgt>
<wgt id='1005'>0.80663E+02</wgt>
<wgt id='1006'>0.70670E+02</wgt>
<wgt id='1007'>0.85644E+02</wgt>
<wgt id='1008'>0.94047E+02</wgt>
<wgt id='1009'>0.78358E+02</wgt>
<wgt id='2000'>0.81104E+02</wgt>
<wgt id='2001'>0.81021E+02</wgt>
<wgt id='2002'>0.81006E+02</wgt>
<wgt id='2003'>0.80866E+02</wgt>
<wgt id='2004'>0.81215E+02</wgt>
<wgt id='2005'>0.81053E+02</wgt>
<wgt id='2006'>0.80858E+02</wgt>
<wgt id='2007'>0.81037E+02</wgt>
<wgt id='2008'>0.80722E+02</wgt>
<wgt id='2009'>0.81638E+02</wgt>
<wgt id='2010'>0.80744E+02</wgt>
<wgt id='2011'>0.81129E+02</wgt>
<wgt id='2012'>0.80994E+02</wgt>
<wgt id='2013'>0.81200E+02</wgt>
<wgt id='2014'>0.81321E+02</wgt>
<wgt id='2015'>0.81736E+02</wgt>
<wgt id='2016'>0.80895E+02</wgt>
<wgt id='2017'>0.80997E+02</wgt>
<wgt id='2018'>0.80697E+02</wgt>
<wgt id='2019'>0.81146E+02</wgt>
<wgt id='2020'>0.80923E+02</wgt>
<wgt id='2021'>0.80832E+02</wgt>
<wgt id='2022'>0.81675E+02</wgt>
<wgt id='2023'>0.80837E+02</wgt>
<wgt id='2024'>0.80630E+02</wgt>
<wgt id='2025'>0.80910E+02</wgt>
<wgt id='2026'>0.80929E+02</wgt>
<wgt id='2027'>0.81384E+02</wgt>
<wgt id='2028'>0.81333E+02</wgt>
<wgt id='2029'>0.81548E+02</wgt>
<wgt id='2030'>0.81225E+02</wgt>
<wgt id='2031'>0.81931E+02</wgt>
<wgt id='2032'>0.80929E+02</wgt>
<wgt id='2033'>0.81272E+02</wgt>
<wgt id='2034'>0.81322E+02</wgt>
<wgt id='2035'>0.81047E+02</wgt>
<wgt id='2036'>0.80773E+02</wgt>
<wgt id='2037'>0.81422E+02</wgt>
<wgt id='2038'>0.81218E+02</wgt>
<wgt id='2039'>0.81136E+02</wgt>
<wgt id='2040'>0.81419E+02</wgt>
<wgt id='2041'>0.81366E+02</wgt>
<wgt id='2042'>0.81125E+02</wgt>
<wgt id='2043'>0.81115E+02</wgt>
<wgt id='2044'>0.81222E+02</wgt>
<wgt id='2045'>0.81070E+02</wgt>
<wgt id='2046'>0.80987E+02</wgt>
<wgt id='2047'>0.80955E+02</wgt>
<wgt id='2048'>0.81031E+02</wgt>
<wgt id='2049'>0.81010E+02</wgt>
<wgt id='2050'>0.81031E+02</wgt>
<wgt id='2051'>0.81096E+02</wgt>
<wgt id='2052'>0.81331E+02</wgt>
<wgt id='2053'>0.81048E+02</wgt>
<wgt id='2054'>0.81157E+02</wgt>
<wgt id='2055'>0.81160E+02</wgt>
<wgt id='2056'>0.81370E+02</wgt>
<wgt id='2057'>0.81316E+02</wgt>
<wgt id='2058'>0.81114E+02</wgt>
<wgt id='2059'>0.81191E+02</wgt>
<wgt id='2060'>0.81098E+02</wgt>
<wgt id='2061'>0.81126E+02</wgt>
<wgt id='2062'>0.81042E+02</wgt>
<wgt id='2063'>0.81131E+02</wgt>
<wgt id='2064'>0.81138E+02</wgt>
<wgt id='2065'>0.81143E+02</wgt>
<wgt id='2066'>0.81253E+02</wgt>
<wgt id='2067'>0.81137E+02</wgt>
<wgt id='2068'>0.81029E+02</wgt>
<wgt id='2069'>0.81153E+02</wgt>
<wgt id='2070'>0.81051E+02</wgt>
<wgt id='2071'>0.81077E+02</wgt>
<wgt id='2072'>0.81130E+02</wgt>
<wgt id='2073'>0.81123E+02</wgt>
<wgt id='2074'>0.81145E+02</wgt>
<wgt id='2075'>0.81078E+02</wgt>
<wgt id='2076'>0.81032E+02</wgt>
<wgt id='2077'>0.81103E+02</wgt>
<wgt id='2078'>0.81159E+02</wgt>
<wgt id='2079'>0.80979E+02</wgt>
<wgt id='2080'>0.81144E+02</wgt>
<wgt id='2081'>0.81050E+02</wgt>
<wgt id='2082'>0.81031E+02</wgt>
<wgt id='2083'>0.81126E+02</wgt>
<wgt id='2084'>0.81174E+02</wgt>
<wgt id='2085'>0.81123E+02</wgt>
<wgt id='2086'>0.81035E+02</wgt>
<wgt id='2087'>0.81074E+02</wgt>
<wgt id='2088'>0.81051E+02</wgt>
<wgt id='2089'>0.81198E+02</wgt>
<wgt id='2090'>0.81046E+02</wgt>
<wgt id='2091'>0.81125E+02</wgt>
<wgt id='2092'>0.81160E+02</wgt>
<wgt id='2093'>0.81112E+02</wgt>
<wgt id='2094'>0.81134E+02</wgt>
<wgt id='2095'>0.81096E+02</wgt>
<wgt id='2096'>0.81123E+02</wgt>
<wgt id='2097'>0.81117E+02</wgt>
<wgt id='2098'>0.81107E+02</wgt>
<wgt id='2099'>0.81124E+02</wgt>
<wgt id='2100'>0.81104E+02</wgt>
<wgt id='2101'>0.78357E+02</wgt>
<wgt id='2102'>0.83990E+02</wgt>
<wgt id='2200'>0.81156E+02</wgt>
<wgt id='2201'>0.68281E+02</wgt>
<wgt id='2202'>0.70629E+02</wgt>
<wgt id='2203'>0.73421E+02</wgt>
<wgt id='2204'>0.76058E+02</wgt>
<wgt id='2205'>0.79925E+02</wgt>
<wgt id='2206'>0.82483E+02</wgt>
<wgt id='2207'>0.86649E+02</wgt>
<wgt id='2208'>0.89270E+02</wgt>
<wgt id='2300'>0.82784E+02</wgt>
<wgt id='2301'>0.82784E+02</wgt>
<wgt id='2302'>0.82861E+02</wgt>
<wgt id='2303'>0.82791E+02</wgt>
<wgt id='2304'>0.82936E+02</wgt>
<wgt id='2305'>0.82826E+02</wgt>
<wgt id='2306'>0.82697E+02</wgt>
<wgt id='2307'>0.82939E+02</wgt>
<wgt id='2308'>0.82679E+02</wgt>
<wgt id='2309'>0.83023E+02</wgt>
<wgt id='2310'>0.82335E+02</wgt>
<wgt id='2311'>0.82701E+02</wgt>
<wgt id='2312'>0.82789E+02</wgt>
<wgt id='2313'>0.82894E+02</wgt>
<wgt id='2314'>0.83233E+02</wgt>
<wgt id='2315'>0.82247E+02</wgt>
<wgt id='2316'>0.83016E+02</wgt>
<wgt id='2317'>0.82638E+02</wgt>
<wgt id='2318'>0.82939E+02</wgt>
<wgt id='2319'>0.82605E+02</wgt>
<wgt id='2320'>0.82234E+02</wgt>
<wgt id='2321'>0.83383E+02</wgt>
<wgt id='2322'>0.82914E+02</wgt>
<wgt id='2323'>0.83068E+02</wgt>
<wgt id='2324'>0.82887E+02</wgt>
<wgt id='2325'>0.82216E+02</wgt>
<wgt id='2326'>0.82642E+02</wgt>
<wgt id='2327'>0.82881E+02</wgt>
<wgt id='2328'>0.82992E+02</wgt>
<wgt id='2329'>0.83185E+02</wgt>
<wgt id='2330'>0.81910E+02</wgt>
<wgt id='2331'>0.82723E+02</wgt>
<wgt id='2332'>0.82557E+02</wgt>
<wgt id='2333'>0.83211E+02</wgt>
<wgt id='2334'>0.82785E+02</wgt>
<wgt id='2335'>0.82812E+02</wgt>
<wgt id='2336'>0.82786E+02</wgt>
<wgt id='2337'>0.82440E+02</wgt>
<wgt id='2338'>0.82734E+02</wgt>
<wgt id='2339'>0.82743E+02</wgt>
<wgt id='2340'>0.82766E+02</wgt>
<wgt id='2341'>0.82618E+02</wgt>
<wgt id='2342'>0.82822E+02</wgt>
<wgt id='2343'>0.82642E+02</wgt>
<wgt id='2344'>0.82728E+02</wgt>
<wgt id='2345'>0.82858E+02</wgt>
<wgt id='2346'>0.82809E+02</wgt>
<wgt id='2347'>0.82630E+02</wgt>
<wgt id='2348'>0.82817E+02</wgt>
<wgt id='2349'>0.82991E+02</wgt>
<wgt id='2350'>0.82736E+02</wgt>
<wgt id='2351'>0.82844E+02</wgt>
<wgt id='2352'>0.82744E+02</wgt>
<wgt id='2353'>0.82606E+02</wgt>
<wgt id='2354'>0.82611E+02</wgt>
<wgt id='2355'>0.82750E+02</wgt>
<wgt id='2356'>0.82790E+02</wgt>
<wgt id='2357'>0.82750E+02</wgt>
<wgt id='2358'>0.82587E+02</wgt>
<wgt id='2359'>0.82838E+02</wgt>
<wgt id='2360'>0.82824E+02</wgt>
<wgt id='2361'>0.82865E+02</wgt>
<wgt id='2362'>0.82730E+02</wgt>
<wgt id='2363'>0.82936E+02</wgt>
<wgt id='2364'>0.82742E+02</wgt>
<wgt id='2365'>0.82878E+02</wgt>
<wgt id='2366'>0.82880E+02</wgt>
<wgt id='2367'>0.82578E+02</wgt>
<wgt id='2368'>0.82861E+02</wgt>
<wgt id='2369'>0.82710E+02</wgt>
<wgt id='2370'>0.82730E+02</wgt>
<wgt id='2371'>0.82800E+02</wgt>
<wgt id='2372'>0.82849E+02</wgt>
<wgt id='2373'>0.82786E+02</wgt>
<wgt id='2374'>0.82887E+02</wgt>
<wgt id='2375'>0.82597E+02</wgt>
<wgt id='2376'>0.82818E+02</wgt>
<wgt id='2377'>0.82804E+02</wgt>
<wgt id='2378'>0.82785E+02</wgt>
<wgt id='2379'>0.82655E+02</wgt>
<wgt id='2380'>0.82838E+02</wgt>
<wgt id='2381'>0.82857E+02</wgt>
<wgt id='2382'>0.82730E+02</wgt>
<wgt id='2383'>0.82786E+02</wgt>
<wgt id='2384'>0.82683E+02</wgt>
<wgt id='2385'>0.82813E+02</wgt>
<wgt id='2386'>0.82801E+02</wgt>
<wgt id='2387'>0.82763E+02</wgt>
<wgt id='2388'>0.82779E+02</wgt>
<wgt id='2389'>0.82740E+02</wgt>
<wgt id='2390'>0.82760E+02</wgt>
<wgt id='2391'>0.82737E+02</wgt>
<wgt id='2392'>0.82704E+02</wgt>
<wgt id='2393'>0.82796E+02</wgt>
<wgt id='2394'>0.82830E+02</wgt>
<wgt id='2395'>0.82754E+02</wgt>
<wgt id='2396'>0.82802E+02</wgt>
<wgt id='2397'>0.82818E+02</wgt>
<wgt id='2398'>0.82796E+02</wgt>
<wgt id='2399'>0.82786E+02</wgt>
<wgt id='2400'>0.82698E+02</wgt>
<wgt id='2401'>0.80088E+02</wgt>
<wgt id='2402'>0.85672E+02</wgt>
<wgt id='2500'>0.77622E+02</wgt>
<wgt id='2501'>0.78581E+02</wgt>
<wgt id='2600'>0.80681E+02</wgt>
<wgt id='2601'>0.80610E+02</wgt>
<wgt id='2602'>0.80717E+02</wgt>
<wgt id='2603'>0.80674E+02</wgt>
<wgt id='2604'>0.80788E+02</wgt>
<wgt id='2605'>0.80759E+02</wgt>
<wgt id='2606'>0.80334E+02</wgt>
<wgt id='2607'>0.80532E+02</wgt>
<wgt id='2608'>0.81131E+02</wgt>
<wgt id='2609'>0.80517E+02</wgt>
<wgt id='2610'>0.80563E+02</wgt>
<wgt id='2611'>0.80391E+02</wgt>
<wgt id='2612'>0.80673E+02</wgt>
<wgt id='2613'>0.80729E+02</wgt>
<wgt id='2614'>0.80658E+02</wgt>
<wgt id='2615'>0.80391E+02</wgt>
<wgt id='2616'>0.80352E+02</wgt>
<wgt id='2617'>0.80966E+02</wgt>
<wgt id='2618'>0.80697E+02</wgt>
<wgt id='2619'>0.80417E+02</wgt>
<wgt id='2620'>0.80599E+02</wgt>
<wgt id='2621'>0.80651E+02</wgt>
<wgt id='2622'>0.80644E+02</wgt>
<wgt id='2623'>0.80717E+02</wgt>
<wgt id='2624'>0.80677E+02</wgt>
<wgt id='2625'>0.80612E+02</wgt>
<wgt id='2626'>0.80794E+02</wgt>
<wgt id='2627'>0.80613E+02</wgt>
<wgt id='2628'>0.80515E+02</wgt>
<wgt id='2629'>0.80624E+02</wgt>
<wgt id='2630'>0.80544E+02</wgt>
<wgt id='2631'>0.80594E+02</wgt>
<wgt id='2632'>0.80645E+02</wgt>
<wgt id='2633'>0.80594E+02</wgt>
<wgt id='2634'>0.80642E+02</wgt>
<wgt id='2635'>0.80673E+02</wgt>
<wgt id='2636'>0.80692E+02</wgt>
<wgt id='2637'>0.80734E+02</wgt>
<wgt id='2638'>0.80657E+02</wgt>
<wgt id='2639'>0.80719E+02</wgt>
<wgt id='2640'>0.80729E+02</wgt>
<wgt id='2641'>0.80668E+02</wgt>
<wgt id='2642'>0.80680E+02</wgt>
<wgt id='2643'>0.80715E+02</wgt>
<wgt id='2644'>0.80680E+02</wgt>
<wgt id='2645'>0.80676E+02</wgt>
<wgt id='2646'>0.80697E+02</wgt>
<wgt id='2647'>0.80700E+02</wgt>
<wgt id='2648'>0.80679E+02</wgt>
<wgt id='2649'>0.80694E+02</wgt>
<wgt id='2650'>0.80692E+02</wgt>
<wgt id='2651'>0.79716E+02</wgt>
<wgt id='2652'>0.81560E+02</wgt>
<wgt id='2700'>0.78589E+02</wgt>
<wgt id='2701'>0.79716E+02</wgt>
<wgt id='2702'>0.80216E+02</wgt>
<wgt id='2703'>0.81225E+02</wgt>
<wgt id='2704'>0.81560E+02</wgt>
<wgt id='2705'>0.82783E+02</wgt>
<wgt id='2800'>0.84498E+02</wgt>
<wgt id='4000'>0.79511E+02</wgt>
<wgt id='4001'>0.79923E+02</wgt>
<wgt id='4002'>0.79689E+02</wgt>
<wgt id='4003'>0.80301E+02</wgt>
<wgt id='4004'>0.78883E+02</wgt>
<wgt id='4005'>0.79552E+02</wgt>
<wgt id='4006'>0.79289E+02</wgt>
<wgt id='4007'>0.77150E+02</wgt>
<wgt id='4008'>0.81671E+02</wgt>
<wgt id='4009'>0.77969E+02</wgt>
<wgt id='4010'>0.80775E+02</wgt>
<wgt id='4011'>0.79524E+02</wgt>
<wgt id='4012'>0.80035E+02</wgt>
<wgt id='4013'>0.78649E+02</wgt>
<wgt id='4014'>0.80107E+02</wgt>
<wgt id='4015'>0.79564E+02</wgt>
<wgt id='4016'>0.78906E+02</wgt>
<wgt id='4017'>0.80441E+02</wgt>
<wgt id='4018'>0.78337E+02</wgt>
<wgt id='4019'>0.79619E+02</wgt>
<wgt id='4020'>0.78449E+02</wgt>
<wgt id='4021'>0.79353E+02</wgt>
<wgt id='4022'>0.79755E+02</wgt>
<wgt id='4023'>0.79582E+02</wgt>
<wgt id='4024'>0.79046E+02</wgt>
<wgt id='4025'>0.79504E+02</wgt>
<wgt id='4026'>0.79696E+02</wgt>
<wgt id='4027'>0.78545E+02</wgt>
<wgt id='4028'>0.80107E+02</wgt>
<wgt id='4029'>0.79504E+02</wgt>
<wgt id='4030'>0.78690E+02</wgt>
<wgt id='4031'>0.79150E+02</wgt>
<wgt id='4032'>0.79784E+02</wgt>
<wgt id='4033'>0.78546E+02</wgt>
<wgt id='4034'>0.80097E+02</wgt>
<wgt id='4035'>0.79754E+02</wgt>
<wgt id='4036'>0.79135E+02</wgt>
<wgt id='4037'>0.80290E+02</wgt>
<wgt id='4038'>0.78268E+02</wgt>
<wgt id='4039'>0.80133E+02</wgt>
<wgt id='4040'>0.78428E+02</wgt>
<wgt id='4041'>0.80180E+02</wgt>
<wgt id='4042'>0.78543E+02</wgt>
<wgt id='4043'>0.78547E+02</wgt>
<wgt id='4044'>0.79851E+02</wgt>
<wgt id='4045'>0.79087E+02</wgt>
<wgt id='4046'>0.79710E+02</wgt>
<wgt id='4047'>0.80813E+02</wgt>
<wgt id='4048'>0.78209E+02</wgt>
<wgt id='4049'>0.78824E+02</wgt>
<wgt id='4050'>0.79829E+02</wgt>
<wgt id='4051'>0.80430E+02</wgt>
<wgt id='4052'>0.77828E+02</wgt>
<wgt id='4053'>0.79811E+02</wgt>
<wgt id='4054'>0.79012E+02</wgt>
<wgt id='4055'>0.79460E+02</wgt>
<wgt id='4056'>0.78856E+02</wgt>
<wgt id='4057'>0.79219E+02</wgt>
<wgt id='4058'>0.79728E+02</wgt>
<wgt id='4100'>0.79575E+02</wgt>
<wgt id='4101'>0.79539E+02</wgt>
<wgt id='4102'>0.79503E+02</wgt>
<wgt id='4103'>0.79518E+02</wgt>
<wgt id='4200'>0.79155E+02</wgt>
<wgt id='4201'>0.79296E+02</wgt>
<wgt id='4202'>0.79376E+02</wgt>
<wgt id='4203'>0.80512E+02</wgt>
<wgt id='4204'>0.78241E+02</wgt>
<wgt id='4205'>0.79985E+02</wgt>
<wgt id='4206'>0.77911E+02</wgt>
<wgt id='4207'>0.78460E+02</wgt>
<wgt id='4208'>0.78694E+02</wgt>
<wgt id='4209'>0.79146E+02</wgt>
<wgt id='4210'>0.78795E+02</wgt>
<wgt id='4211'>0.78683E+02</wgt>
<wgt id='4212'>0.79452E+02</wgt>
<wgt id='4213'>0.80516E+02</wgt>
<wgt id='4214'>0.76954E+02</wgt>
<wgt id='4215'>0.79036E+02</wgt>
<wgt id='4216'>0.79795E+02</wgt>
<wgt id='4217'>0.79616E+02</wgt>
<wgt id='4218'>0.78852E+02</wgt>
<wgt id='4219'>0.79063E+02</wgt>
<wgt id='4220'>0.78977E+02</wgt>
<wgt id='4221'>0.78633E+02</wgt>
<wgt id='4222'>0.79877E+02</wgt>
<wgt id='4223'>0.78226E+02</wgt>
<wgt id='4224'>0.80029E+02</wgt>
<wgt id='4225'>0.79252E+02</wgt>
<wgt id='4226'>0.78693E+02</wgt>
<wgt id='4227'>0.78522E+02</wgt>
<wgt id='4228'>0.79582E+02</wgt>
<wgt id='4229'>0.78924E+02</wgt>
<wgt id='4230'>0.78917E+02</wgt>
<wgt id='4231'>0.80399E+02</wgt>
<wgt id='4232'>0.77108E+02</wgt>
<wgt id='4233'>0.79561E+02</wgt>
<wgt id='4234'>0.78699E+02</wgt>
<wgt id='4235'>0.78756E+02</wgt>
<wgt id='4236'>0.78856E+02</wgt>
<wgt id='4237'>0.80345E+02</wgt>
<wgt id='4238'>0.78023E+02</wgt>
<wgt id='4239'>0.79291E+02</wgt>
<wgt id='4240'>0.78207E+02</wgt>
<wgt id='4241'>0.79270E+02</wgt>
<wgt id='4242'>0.78888E+02</wgt>
<wgt id='4243'>0.78142E+02</wgt>
<wgt id='4244'>0.80519E+02</wgt>
<wgt id='4245'>0.78099E+02</wgt>
<wgt id='4246'>0.80206E+02</wgt>
<wgt id='4247'>0.79717E+02</wgt>
<wgt id='4248'>0.78540E+02</wgt>
<wgt id='4249'>0.79267E+02</wgt>
<wgt id='4250'>0.78629E+02</wgt>
<wgt id='4251'>0.78916E+02</wgt>
<wgt id='4252'>0.79292E+02</wgt>
<wgt id='4253'>0.79100E+02</wgt>
<wgt id='4254'>0.79022E+02</wgt>
<wgt id='4255'>0.79095E+02</wgt>
<wgt id='4256'>0.78521E+02</wgt>
<wgt id='4257'>0.78551E+02</wgt>
<wgt id='4258'>0.79334E+02</wgt>
<wgt id='4300'>0.77582E+02</wgt>
<wgt id='4301'>0.79554E+02</wgt>
<wgt id='5000'>0.78136E+02</wgt>
<wgt id='5001'>0.77934E+02</wgt>
<wgt id='5002'>0.78395E+02</wgt>
<wgt id='5003'>0.77857E+02</wgt>
<wgt id='5004'>0.78391E+02</wgt>
<wgt id='5005'>0.78010E+02</wgt>
<wgt id='5006'>0.78342E+02</wgt>
<wgt id='5007'>0.78424E+02</wgt>
<wgt id='5008'>0.77901E+02</wgt>
<wgt id='5009'>0.78251E+02</wgt>
<wgt id='5010'>0.78018E+02</wgt>
<wgt id='5011'>0.77760E+02</wgt>
<wgt id='5012'>0.78500E+02</wgt>
<wgt id='5013'>0.78374E+02</wgt>
<wgt id='5014'>0.77966E+02</wgt>
<wgt id='5015'>0.78446E+02</wgt>
<wgt id='5016'>0.78446E+02</wgt>
<wgt id='5017'>0.78066E+02</wgt>
<wgt id='5018'>0.78182E+02</wgt>
<wgt id='5019'>0.77825E+02</wgt>
<wgt id='5020'>0.78567E+02</wgt>
<wgt id='5021'>0.78045E+02</wgt>
<wgt id='5022'>0.78268E+02</wgt>
<wgt id='5023'>0.78147E+02</wgt>
<wgt id='5024'>0.78110E+02</wgt>
<wgt id='5025'>0.78411E+02</wgt>
<wgt id='5026'>0.77821E+02</wgt>
<wgt id='5027'>0.78051E+02</wgt>
<wgt id='5028'>0.78369E+02</wgt>
<wgt id='5029'>0.77258E+02</wgt>
<wgt id='5030'>0.78639E+02</wgt>
<wgt id='5031'>0.78202E+02</wgt>
<wgt id='5032'>0.77936E+02</wgt>
<wgt id='5033'>0.78080E+02</wgt>
<wgt id='5034'>0.78195E+02</wgt>
<wgt id='5035'>0.78510E+02</wgt>
<wgt id='5036'>0.77627E+02</wgt>
<wgt id='5037'>0.78507E+02</wgt>
<wgt id='5038'>0.77928E+02</wgt>
<wgt id='5039'>0.78021E+02</wgt>
<wgt id='5040'>0.78437E+02</wgt>
<wgt id='5041'>0.78219E+02</wgt>
<wgt id='5042'>0.78053E+02</wgt>
<wgt id='5043'>0.77378E+02</wgt>
<wgt id='5044'>0.78822E+02</wgt>
<wgt id='5045'>0.77909E+02</wgt>
<wgt id='5046'>0.78577E+02</wgt>
<wgt id='5047'>0.78110E+02</wgt>
<wgt id='5048'>0.78371E+02</wgt>
<wgt id='5049'>0.78350E+02</wgt>
<wgt id='5050'>0.77842E+02</wgt>
<wgt id='5051'>0.78165E+02</wgt>
<wgt id='5052'>0.78111E+02</wgt>
<wgt id='5053'>0.77721E+02</wgt>
<wgt id='5054'>0.78406E+02</wgt>
<wgt id='5055'>0.77998E+02</wgt>
<wgt id='5056'>0.78218E+02</wgt>
<wgt id='5057'>0.77967E+02</wgt>
<wgt id='5058'>0.78219E+02</wgt>
<wgt id='5059'>0.78401E+02</wgt>
<wgt id='5060'>0.78011E+02</wgt>
<wgt id='5061'>0.77985E+02</wgt>
<wgt id='5062'>0.77861E+02</wgt>
<wgt id='5063'>0.78623E+02</wgt>
<wgt id='5064'>0.78312E+02</wgt>
<wgt id='5100'>0.78136E+02</wgt>
<wgt id='5101'>0.78175E+02</wgt>
<wgt id='6000'>0.78753E+02</wgt>
<wgt id='6001'>0.78748E+02</wgt>
<wgt id='6002'>0.77333E+02</wgt>
<wgt id='6003'>0.78625E+02</wgt>
<wgt id='6004'>0.78213E+02</wgt>
<wgt id='6005'>0.78825E+02</wgt>
<wgt id='6006'>0.78335E+02</wgt>
<wgt id='6007'>0.78874E+02</wgt>
<wgt id='6008'>0.78341E+02</wgt>
<wgt id='6009'>0.79001E+02</wgt>
<wgt id='6010'>0.78710E+02</wgt>
<wgt id='6011'>0.78931E+02</wgt>
<wgt id='6012'>0.78960E+02</wgt>
<wgt id='6013'>0.78981E+02</wgt>
<wgt id='6014'>0.78802E+02</wgt>
<wgt id='6015'>0.78818E+02</wgt>
<wgt id='6016'>0.79227E+02</wgt>
<wgt id='6017'>0.78953E+02</wgt>
<wgt id='6018'>0.79621E+02</wgt>
<wgt id='6019'>0.78673E+02</wgt>
<wgt id='6020'>0.78869E+02</wgt>
<wgt id='6021'>0.78360E+02</wgt>
<wgt id='6022'>0.78653E+02</wgt>
<wgt id='6023'>0.78749E+02</wgt>
<wgt id='6024'>0.78803E+02</wgt>
<wgt id='6025'>0.78213E+02</wgt>
<wgt id='6026'>0.78783E+02</wgt>
<wgt id='6027'>0.78780E+02</wgt>
<wgt id='6028'>0.78658E+02</wgt>
<wgt id='6029'>0.78917E+02</wgt>
<wgt id='6030'>0.78818E+02</wgt>
<wgt id='6031'>0.78718E+02</wgt>
<wgt id='6032'>0.78707E+02</wgt>
<wgt id='6033'>0.78696E+02</wgt>
<wgt id='6034'>0.78865E+02</wgt>
<wgt id='6035'>0.78852E+02</wgt>
<wgt id='6036'>0.78905E+02</wgt>
<wgt id='6037'>0.78954E+02</wgt>
<wgt id='6038'>0.78718E+02</wgt>
<wgt id='6039'>0.78940E+02</wgt>
<wgt id='6040'>0.78705E+02</wgt>
<wgt id='6041'>0.77528E+02</wgt>
<wgt id='6042'>0.80508E+02</wgt>
<wgt id='7000'>0.87737E+02</wgt>
<wgt id='7001'>0.87846E+02</wgt>
<wgt id='7002'>0.87594E+02</wgt>
<wgt id='7003'>0.87525E+02</wgt>
<wgt id='7004'>0.87915E+02</wgt>
<wgt id='7005'>0.87662E+02</wgt>
<wgt id='7006'>0.87776E+02</wgt>
<wgt id='7007'>0.87284E+02</wgt>
<wgt id='7008'>0.88146E+02</wgt>
<wgt id='7009'>0.88047E+02</wgt>
<wgt id='7010'>0.87392E+02</wgt>
<wgt id='7011'>0.87863E+02</wgt>
<wgt id='7012'>0.87576E+02</wgt>
<wgt id='7013'>0.87416E+02</wgt>
<wgt id='7014'>0.88019E+02</wgt>
<wgt id='7015'>0.87546E+02</wgt>
<wgt id='7016'>0.87813E+02</wgt>
<wgt id='7017'>0.87797E+02</wgt>
<wgt id='7018'>0.87638E+02</wgt>
<wgt id='7019'>0.87859E+02</wgt>
<wgt id='7020'>0.87585E+02</wgt>
<wgt id='7021'>0.86959E+02</wgt>
<wgt id='7022'>0.88472E+02</wgt>
<wgt id='7023'>0.87641E+02</wgt>
<wgt id='7024'>0.87820E+02</wgt>
<wgt id='7025'>0.87038E+02</wgt>
<wgt id='7026'>0.88254E+02</wgt>
<wgt id='7027'>0.86984E+02</wgt>
<wgt id='7028'>0.88157E+02</wgt>
<wgt id='8000'>0.81627E+02</wgt>
<wgt id='8001'>0.81612E+02</wgt>
<wgt id='8002'>0.81533E+02</wgt>
<wgt id='8003'>0.81818E+02</wgt>
<wgt id='8004'>0.81629E+02</wgt>
<wgt id='8005'>0.81737E+02</wgt>
<wgt id='8006'>0.81485E+02</wgt>
<wgt id='8007'>0.81814E+02</wgt>
<wgt id='8008'>0.81231E+02</wgt>
<wgt id='8009'>0.81511E+02</wgt>
<wgt id='8010'>0.81706E+02</wgt>
<wgt id='8011'>0.81424E+02</wgt>
<wgt id='8012'>0.81764E+02</wgt>
<wgt id='8013'>0.81690E+02</wgt>
<wgt id='8014'>0.81450E+02</wgt>
<wgt id='8015'>0.81717E+02</wgt>
<wgt id='8016'>0.81678E+02</wgt>
<wgt id='8017'>0.81483E+02</wgt>
<wgt id='8018'>0.81421E+02</wgt>
<wgt id='8019'>0.81542E+02</wgt>
<wgt id='8020'>0.81296E+02</wgt>
<wgt id='8021'>0.81491E+02</wgt>
<wgt id='8022'>0.81579E+02</wgt>
<wgt id='8023'>0.81543E+02</wgt>
<wgt id='8024'>0.81763E+02</wgt>
<wgt id='8025'>0.81683E+02</wgt>
<wgt id='8026'>0.81346E+02</wgt>
<wgt id='8027'>0.81413E+02</wgt>
<wgt id='8028'>0.81747E+02</wgt>
<wgt id='8029'>0.81230E+02</wgt>
<wgt id='3000'>0.81104E+02</wgt>
<wgt id='3001'>0.87950E+02</wgt>
<wgt id='3002'>0.82298E+02</wgt>
<wgt id='3003'>0.80186E+02</wgt>
<wgt id='3004'>0.79943E+02</wgt>
<wgt id='3005'>0.78777E+02</wgt>
<wgt id='3006'>0.83552E+02</wgt>
<wgt id='3007'>0.82801E+02</wgt>
<wgt id='3008'>0.79644E+02</wgt>
<wgt id='3009'>0.79208E+02</wgt>
<wgt id='3010'>0.77228E+02</wgt>
<wgt id='3011'>0.80376E+02</wgt>
<wgt id='3012'>0.78989E+02</wgt>
<wgt id='3013'>0.79832E+02</wgt>
<wgt id='3014'>0.82806E+02</wgt>
<wgt id='3015'>0.81870E+02</wgt>
<wgt id='3016'>0.81471E+02</wgt>
<wgt id='3017'>0.82005E+02</wgt>
<wgt id='3018'>0.79116E+02</wgt>
<wgt id='3019'>0.82395E+02</wgt>
<wgt id='3020'>0.77233E+02</wgt>
<wgt id='3021'>0.81476E+02</wgt>
<wgt id='3022'>0.83038E+02</wgt>
<wgt id='3023'>0.82828E+02</wgt>
<wgt id='3024'>0.78740E+02</wgt>
<wgt id='3025'>0.81477E+02</wgt>
<wgt id='3026'>0.84620E+02</wgt>
<wgt id='3027'>0.81119E+02</wgt>
<wgt id='3028'>0.81232E+02</wgt>
<wgt id='3029'>0.82048E+02</wgt>
<wgt id='3030'>0.82338E+02</wgt>
<wgt id='3031'>0.84308E+02</wgt>
<wgt id='3032'>0.79201E+02</wgt>
<wgt id='3033'>0.83397E+02</wgt>
<wgt id='3034'>0.78231E+02</wgt>
<wgt id='3035'>0.80316E+02</wgt>
<wgt id='3036'>0.82372E+02</wgt>
<wgt id='3037'>0.80200E+02</wgt>
<wgt id='3038'>0.79986E+02</wgt>
<wgt id='3039'>0.81410E+02</wgt>
<wgt id='3040'>0.83242E+02</wgt>
<wgt id='3041'>0.82142E+02</wgt>
<wgt id='3042'>0.81870E+02</wgt>
<wgt id='3043'>0.81591E+02</wgt>
<wgt id='3044'>0.83402E+02</wgt>
<wgt id='3045'>0.82285E+02</wgt>
<wgt id='3046'>0.82895E+02</wgt>
<wgt id='3047'>0.82007E+02</wgt>
<wgt id='3048'>0.81310E+02</wgt>
<wgt id='3049'>0.82842E+02</wgt>
<wgt id='3050'>0.79647E+02</wgt>
<wgt id='3051'>0.79905E+02</wgt>
<wgt id='3052'>0.80468E+02</wgt>
<wgt id='3053'>0.80568E+02</wgt>
<wgt id='3054'>0.82222E+02</wgt>
<wgt id='3055'>0.84460E+02</wgt>
<wgt id='3056'>0.80948E+02</wgt>
<wgt id='3057'>0.82560E+02</wgt>
<wgt id='3058'>0.81781E+02</wgt>
<wgt id='3059'>0.81757E+02</wgt>
<wgt id='3060'>0.84001E+02</wgt>
<wgt id='3061'>0.81642E+02</wgt>
<wgt id='3062'>0.79888E+02</wgt>
<wgt id='3063'>0.80270E+02</wgt>
<wgt id='3064'>0.79124E+02</wgt>
<wgt id='3065'>0.83022E+02</wgt>
<wgt id='3066'>0.83885E+02</wgt>
<wgt id='3067'>0.82221E+02</wgt>
<wgt id='3068'>0.82605E+02</wgt>
<wgt id='3069'>0.82877E+02</wgt>
<wgt id='3070'>0.80097E+02</wgt>
<wgt id='3071'>0.79786E+02</wgt>
<wgt id='3072'>0.81361E+02</wgt>
<wgt id='3073'>0.76521E+02</wgt>
<wgt id='3074'>0.77527E+02</wgt>
<wgt id='3075'>0.78773E+02</wgt>
<wgt id='3076'>0.85361E+02</wgt>
<wgt id='3077'>0.78446E+02</wgt>
<wgt id='3078'>0.81888E+02</wgt>
<wgt id='3079'>0.80700E+02</wgt>
<wgt id='3080'>0.81367E+02</wgt>
<wgt id='3081'>0.80490E+02</wgt>
<wgt id='3082'>0.81471E+02</wgt>
<wgt id='3083'>0.79280E+02</wgt>
<wgt id='3084'>0.79327E+02</wgt>
<wgt id='3085'>0.80394E+02</wgt>
<wgt id='3086'>0.82830E+02</wgt>
<wgt id='3087'>0.77235E+02</wgt>
<wgt id='3088'>0.80621E+02</wgt>
<wgt id='3089'>0.74692E+02</wgt>
<wgt id='3090'>0.80627E+02</wgt>
<wgt id='3091'>0.82195E+02</wgt>
<wgt id='3092'>0.78168E+02</wgt>
<wgt id='3093'>0.79173E+02</wgt>
<wgt id='3094'>0.80063E+02</wgt>
<wgt id='3095'>0.80223E+02</wgt>
<wgt id='3096'>0.82758E+02</wgt>
<wgt id='3097'>0.81921E+02</wgt>
<wgt id='3098'>0.81808E+02</wgt>
<wgt id='3099'>0.81242E+02</wgt>
<wgt id='3100'>0.81110E+02</wgt>
<wgt id='3200'>0.80661E+02</wgt>
<wgt id='3201'>0.80971E+02</wgt>
<wgt id='3202'>0.79724E+02</wgt>
<wgt id='3203'>0.82726E+02</wgt>
<wgt id='3204'>0.79701E+02</wgt>
<wgt id='3205'>0.80915E+02</wgt>
<wgt id='3206'>0.82148E+02</wgt>
<wgt id='3207'>0.79881E+02</wgt>
<wgt id='3208'>0.81451E+02</wgt>
<wgt id='3209'>0.79855E+02</wgt>
<wgt id='3210'>0.80324E+02</wgt>
<wgt id='3211'>0.80708E+02</wgt>
<wgt id='3212'>0.81640E+02</wgt>
<wgt id='3213'>0.78978E+02</wgt>
<wgt id='3214'>0.80386E+02</wgt>
<wgt id='3215'>0.80524E+02</wgt>
<wgt id='3216'>0.79881E+02</wgt>
<wgt id='3217'>0.81249E+02</wgt>
<wgt id='3218'>0.79775E+02</wgt>
<wgt id='3219'>0.80875E+02</wgt>
<wgt id='3220'>0.80477E+02</wgt>
<wgt id='3221'>0.80658E+02</wgt>
<wgt id='3222'>0.80558E+02</wgt>
<wgt id='3223'>0.81048E+02</wgt>
<wgt id='3224'>0.79962E+02</wgt>
<wgt id='3225'>0.81501E+02</wgt>
<wgt id='3226'>0.81390E+02</wgt>
<wgt id='3227'>0.79632E+02</wgt>
<wgt id='3228'>0.79584E+02</wgt>
<wgt id='3229'>0.81085E+02</wgt>
<wgt id='3230'>0.80332E+02</wgt>
<wgt id='3231'>0.80564E+02</wgt>
<wgt id='3232'>0.79878E+02</wgt>
<wgt id='3233'>0.82054E+02</wgt>
<wgt id='3234'>0.79895E+02</wgt>
<wgt id='3235'>0.80680E+02</wgt>
<wgt id='3236'>0.79320E+02</wgt>
<wgt id='3237'>0.81777E+02</wgt>
<wgt id='3238'>0.80732E+02</wgt>
<wgt id='3239'>0.80307E+02</wgt>
<wgt id='3240'>0.81639E+02</wgt>
<wgt id='3241'>0.80957E+02</wgt>
<wgt id='3242'>0.79804E+02</wgt>
<wgt id='3243'>0.79980E+02</wgt>
<wgt id='3244'>0.80382E+02</wgt>
<wgt id='3245'>0.79038E+02</wgt>
<wgt id='3246'>0.80748E+02</wgt>
<wgt id='3247'>0.80269E+02</wgt>
<wgt id='3248'>0.82073E+02</wgt>
<wgt id='3249'>0.79538E+02</wgt>
<wgt id='3250'>0.81480E+02</wgt>
<wgt id='3251'>0.79910E+02</wgt>
<wgt id='3252'>0.80752E+02</wgt>
<wgt id='3253'>0.80264E+02</wgt>
<wgt id='3254'>0.82196E+02</wgt>
<wgt id='3255'>0.81052E+02</wgt>
<wgt id='3256'>0.80517E+02</wgt>
<wgt id='3257'>0.81676E+02</wgt>
<wgt id='3258'>0.79846E+02</wgt>
<wgt id='3259'>0.78171E+02</wgt>
<wgt id='3260'>0.79822E+02</wgt>
<wgt id='3261'>0.79568E+02</wgt>
<wgt id='3262'>0.83171E+02</wgt>
<wgt id='3263'>0.81106E+02</wgt>
<wgt id='3264'>0.79872E+02</wgt>
<wgt id='3265'>0.78850E+02</wgt>
<wgt id='3266'>0.81777E+02</wgt>
<wgt id='3267'>0.81120E+02</wgt>
<wgt id='3268'>0.80268E+02</wgt>
<wgt id='3269'>0.79763E+02</wgt>
<wgt id='3270'>0.80565E+02</wgt>
<wgt id='3271'>0.79933E+02</wgt>
<wgt id='3272'>0.80722E+02</wgt>
<wgt id='3273'>0.80184E+02</wgt>
<wgt id='3274'>0.80448E+02</wgt>
<wgt id='3275'>0.80655E+02</wgt>
<wgt id='3276'>0.80022E+02</wgt>
<wgt id='3277'>0.81572E+02</wgt>
<wgt id='3278'>0.81343E+02</wgt>
<wgt id='3279'>0.79604E+02</wgt>
<wgt id='3280'>0.79344E+02</wgt>
<wgt id='3281'>0.81010E+02</wgt>
<wgt id='3282'>0.82105E+02</wgt>
<wgt id='3283'>0.82595E+02</wgt>
<wgt id='3284'>0.80473E+02</wgt>
<wgt id='3285'>0.80608E+02</wgt>
<wgt id='3286'>0.83482E+02</wgt>
<wgt id='3287'>0.82433E+02</wgt>
<wgt id='3288'>0.80160E+02</wgt>
<wgt id='3289'>0.80677E+02</wgt>
<wgt id='3290'>0.80485E+02</wgt>
<wgt id='3291'>0.79365E+02</wgt>
<wgt id='3292'>0.82117E+02</wgt>
<wgt id='3293'>0.80687E+02</wgt>
<wgt id='3294'>0.80392E+02</wgt>
<wgt id='3295'>0.81900E+02</wgt>
<wgt id='3296'>0.82333E+02</wgt>
<wgt id='3297'>0.79705E+02</wgt>
<wgt id='3298'>0.81095E+02</wgt>
<wgt id='3299'>0.80419E+02</wgt>
<wgt id='3300'>0.80734E+02</wgt>
<wgt id='3301'>0.79716E+02</wgt>
<wgt id='3302'>0.81560E+02</wgt>
<wgt id='3400'>0.80055E+02</wgt>
<wgt id='3401'>0.80153E+02</wgt>
<wgt id='3402'>0.80050E+02</wgt>
<wgt id='3403'>0.79759E+02</wgt>
<wgt id='3404'>0.78616E+02</wgt>
<wgt id='3405'>0.79468E+02</wgt>
<wgt id='3406'>0.81873E+02</wgt>
<wgt id='3407'>0.81353E+02</wgt>
<wgt id='3408'>0.78574E+02</wgt>
<wgt id='3409'>0.80705E+02</wgt>
<wgt id='3410'>0.79491E+02</wgt>
<wgt id='3411'>0.79888E+02</wgt>
<wgt id='3412'>0.79982E+02</wgt>
<wgt id='3413'>0.80542E+02</wgt>
<wgt id='3414'>0.81004E+02</wgt>
<wgt id='3415'>0.79737E+02</wgt>
<wgt id='3416'>0.80895E+02</wgt>
<wgt id='3417'>0.80750E+02</wgt>
<wgt id='3418'>0.81159E+02</wgt>
<wgt id='3419'>0.80018E+02</wgt>
<wgt id='3420'>0.79740E+02</wgt>
<wgt id='3421'>0.81211E+02</wgt>
<wgt id='3422'>0.79081E+02</wgt>
<wgt id='3423'>0.79670E+02</wgt>
<wgt id='3424'>0.80061E+02</wgt>
<wgt id='3425'>0.80886E+02</wgt>
<wgt id='3426'>0.80253E+02</wgt>
<wgt id='3427'>0.80226E+02</wgt>
<wgt id='3428'>0.81285E+02</wgt>
<wgt id='3429'>0.79219E+02</wgt>
<wgt id='3430'>0.80641E+02</wgt>
<wgt id='3431'>0.79151E+02</wgt>
<wgt id='3432'>0.78785E+02</wgt>
<wgt id='3433'>0.80119E+02</wgt>
<wgt id='3434'>0.79784E+02</wgt>
<wgt id='3435'>0.79443E+02</wgt>
<wgt id='3436'>0.81400E+02</wgt>
<wgt id='3437'>0.79175E+02</wgt>
<wgt id='3438'>0.79890E+02</wgt>
<wgt id='3439'>0.79092E+02</wgt>
<wgt id='3440'>0.79297E+02</wgt>
<wgt id='3441'>0.80584E+02</wgt>
<wgt id='3442'>0.79676E+02</wgt>
<wgt id='3443'>0.78715E+02</wgt>
<wgt id='3444'>0.80328E+02</wgt>
<wgt id='3445'>0.79087E+02</wgt>
<wgt id='3446'>0.79518E+02</wgt>
<wgt id='3447'>0.80909E+02</wgt>
<wgt id='3448'>0.81864E+02</wgt>
<wgt id='3449'>0.80114E+02</wgt>
<wgt id='3450'>0.80317E+02</wgt>
<wgt id='3451'>0.79329E+02</wgt>
<wgt id='3452'>0.79859E+02</wgt>
<wgt id='3453'>0.81258E+02</wgt>
<wgt id='3454'>0.80205E+02</wgt>
<wgt id='3455'>0.79920E+02</wgt>
<wgt id='3456'>0.78421E+02</wgt>
<wgt id='3457'>0.79915E+02</wgt>
<wgt id='3458'>0.79273E+02</wgt>
<wgt id='3459'>0.80226E+02</wgt>
<wgt id='3460'>0.80592E+02</wgt>
<wgt id='3461'>0.79919E+02</wgt>
<wgt id='3462'>0.79643E+02</wgt>
<wgt id='3463'>0.79865E+02</wgt>
<wgt id='3464'>0.78658E+02</wgt>
<wgt id='3465'>0.79104E+02</wgt>
<wgt id='3466'>0.79234E+02</wgt>
<wgt id='3467'>0.80163E+02</wgt>
<wgt id='3468'>0.80032E+02</wgt>
<wgt id='3469'>0.80389E+02</wgt>
<wgt id='3470'>0.79362E+02</wgt>
<wgt id='3471'>0.79221E+02</wgt>
<wgt id='3472'>0.79895E+02</wgt>
<wgt id='3473'>0.79502E+02</wgt>
<wgt id='3474'>0.80419E+02</wgt>
<wgt id='3475'>0.80155E+02</wgt>
<wgt id='3476'>0.80686E+02</wgt>
<wgt id='3477'>0.80958E+02</wgt>
<wgt id='3478'>0.79842E+02</wgt>
<wgt id='3479'>0.81522E+02</wgt>
<wgt id='3480'>0.79814E+02</wgt>
<wgt id='3481'>0.80737E+02</wgt>
<wgt id='3482'>0.79902E+02</wgt>
<wgt id='3483'>0.81259E+02</wgt>
<wgt id='3484'>0.80022E+02</wgt>
<wgt id='3485'>0.80066E+02</wgt>
<wgt id='3486'>0.79463E+02</wgt>
<wgt id='3487'>0.80609E+02</wgt>
<wgt id='3488'>0.79282E+02</wgt>
<wgt id='3489'>0.80081E+02</wgt>
<wgt id='3490'>0.78106E+02</wgt>
<wgt id='3491'>0.81903E+02</wgt>
<wgt id='3492'>0.80519E+02</wgt>
<wgt id='3493'>0.78839E+02</wgt>
<wgt id='3494'>0.78845E+02</wgt>
<wgt id='3495'>0.81145E+02</wgt>
<wgt id='3496'>0.79767E+02</wgt>
<wgt id='3497'>0.81245E+02</wgt>
<wgt id='3498'>0.80494E+02</wgt>
<wgt id='3499'>0.81472E+02</wgt>
<wgt id='3500'>0.80718E+02</wgt>
</rwgt>
</event>
<event>
     13 322200  8.11039E+01  6.19976E+01 -1.00000E+00  1.32087E-01
       1    -1     0     0   502     0  0.000000000E+00  0.000000000E+00  1.071684250E+02  1.071684250E+02  0.000000000E+00  0.00000E+00  9.000E+00
      -1    -1     0     0     0   512  0.000000000E+00  0.000000000E+00 -7.146248182E+02  7.146248182E+02  0.000000000E+00  0.00000E+00  9.000E+00
       6     2     1     2   502     0 -7.522934257E+00  7.752284447E+01 -4.495497887E+02  4.875112835E+02  1.717726786E+02  0.00000E+00  9.000E+00
      -6     2     1     2     0   513  6.842789468E+01 -8.911096770E+01 -5.536372854E+01  2.144539987E+02  1.740753682E+02  0.00000E+00  9.000E+00
      21     1     1     2   513   512 -6.090496043E+01  1.158812323E+01 -1.025428760E+02  1.198279609E+02  0.000000000E+00  0.00000E+00  9.000E+00
      24     2     3     3     0     0 -1.737167771E+01  5.482057879E+01 -1.128991467E+02  1.499144101E+02  8.013140443E+01  0.00000E+00  9.000E+00
       5     1     3     3   502     0  9.848743449E+00  2.270226567E+01 -3.366506420E+02  3.375968734E+02  5.060000000E+00  0.00000E+00 -1.000E+00
     -24     2     4     4     0     0  4.454822910E+01 -1.257325437E+02 -1.709209659E+01  1.561299071E+02  7.931702748E+01  0.00000E+00  9.000E+00
      -5     1     4     4     0   513  2.387966558E+01  3.662157601E+01 -3.827163195E+01  5.832409168E+01  5.060000000E+00  0.00000E+00  1.000E+00
     -15     1     6     6     0     0 -1.972152807E+01  3.180563247E+01 -2.976837876E+00  3.758398886E+01  1.777000000E+00  0.00000E+00  1.000E+00
      16     1     6     6     0     0  2.349850363E+00  2.301494633E+01 -1.099223088E+02  1.123304212E+02  0.000000000E+00  0.00000E+00 -1.000E+00
      11     1     8     8     0     0  1.694934285E+01 -1.185720945E+02 -3.196784779E+01  1.239700170E+02  5.100000000E-04  0.00000E+00 -1.000E+00
     -12     1     8     8     0     0  2.759888625E+01 -7.160449182E+00  1.487575119E+01  3.215989005E+01  0.000000000E+00  0.00000E+00  1.000E+00
#rwgt            1           7   7.0534030194211921               10       16073           0
<rwgt>
<wgt id='1001'>0.81104E+02</wgt>
<wgt id='1002'>0.88469E+02</wgt>
<wgt id='1003'>0.74738E+02</wgt>
<wgt id='1004'>0.73356E+02</wgt>
<wgt id='1005'>0.78918E+02</wgt>
<wgt id='1006'>0.68511E+02</wgt>
<wgt id='1007'>0.89162E+02</wgt>
<wgt id='1008'>0.99178E+02</wgt>
<wgt id='1009'>0.80569E+02</wgt>
<wgt id='2000'>0.81104E+02</wgt>
<wgt id='2001'>0.81114E+02</wgt>
<wgt id='2002'>0.80985E+02</wgt>
<wgt id='2003'>0.81150E+02</wgt>
<wgt id='2004'>0.81512E+02</wgt>
<wgt id='2005'>0.80690E+02</wgt>
<wgt id='2006'>0.80984E+02</wgt>
<wgt id='2007'>0.80936E+02</wgt>
<wgt id='2008'>0.80457E+02</wgt>
<wgt id='2009'>0.81873E+02</wgt>
<wgt id='2010'>0.81025E+02</wgt>
<wgt id='2011'>0.81311E+02</wgt>
<wgt id='2012'>0.81145E+02</wgt>
<wgt id='2013'>0.81517E+02</wgt>
<wgt id='2014'>0.80782E+02</wgt>
<wgt id='2015'>0.82227E+02</wgt>
<wgt id='2016'>0.81121E+02</wgt>
<wgt id='2017'>0.80997E+02</wgt>
<wgt id='2018'>0.80452E+02</wgt>
<wgt id='2019'>0.81146E+02</wgt>
<wgt id='2020'>0.81181E+02</wgt>
<wgt id='2021'>0.80681E+02</wgt>
<wgt id='2022'>0.81540E+02</wgt>
<wgt id='2023'>0.81108E+02</wgt>
<wgt id='2024'>0.80465E+02</wgt>
<wgt id='2025'>0.80839E+02</wgt>
<wgt id='2026'>0.80897E+02</wgt>
<wgt id='2027'>0.82192E+02</wgt>
<wgt id='2028'>0.81081E+02</wgt>
<wgt id='2029'>0.81619E+02</wgt>
<wgt id='2030'>0.81474E+02</wgt>
<wgt id='2031'>0.81493E+02</wgt>
<wgt id='2032'>0.80434E+02</wgt>
<wgt id='2033'>0.81338E+02</wgt>
<wgt id='2034'>0.81284E+02</wgt>
<wgt id='2035'>0.81345E+02</wgt>
<wgt id='2036'>0.80988E+02</wgt>
<wgt id='2037'>0.80937E+02</wgt>
<wgt id='2038'>0.81320E+02</wgt>
<wgt id='2039'>0.81245E+02</wgt>
<wgt id='2040'>0.80936E+02</wgt>
<wgt id='2041'>0.81146E+02</wgt>
<wgt id='2042'>0.80879E+02</wgt>
<wgt id='2043'>0.80804E+02</wgt>
<wgt id='2044'>0.80921E+02</wgt>
<wgt id='2045'>0.81450E+02</wgt>
<wgt id='2046'>0.81466E+02</wgt>
<wgt id='2047'>0.81022E+02</wgt>
<wgt id='2048'>0.81200E+02</wgt>
<wgt id='2049'>0.80830E+02</wgt>
<wgt id='2050'>0.81069E+02</wgt>
<wgt id='2051'>0.81150E+02</wgt>
<wgt id='2052'>0.80860E+02</wgt>
<wgt id='2053'>0.81088E+02</wgt>
<wgt id='2054'>0.81308E+02</wgt>
<wgt id='2055'>0.81354E+02</wgt>
<wgt id='2056'>0.81124E+02</wgt>
<wgt id='2057'>0.81003E+02</wgt>
<wgt id='2058'>0.81115E+02</wgt>
<wgt id='2059'>0.81234E+02</wgt>
<wgt id='2060'>0.81241E+02</wgt>
<wgt id='2061'>0.81460E+02</wgt>
<wgt id='2062'>0.81128E+02</wgt>
<wgt id='2063'>0.80986E+02</wgt>
<wgt id='2064'>0.81229E+02</wgt>
<wgt id='2065'>0.81193E+02</wgt>
<wgt id='2066'>0.81712E+02</wgt>
<wgt id='2067'>0.81117E+02</wgt>
<wgt id='2068'>0.81053E+02</wgt>
<wgt id='2069'>0.80903E+02</wgt>
<wgt id='2070'>0.81054E+02</wgt>
<wgt id='2071'>0.81137E+02</wgt>
<wgt id='2072'>0.81145E+02</wgt>
<wgt id='2073'>0.81084E+02</wgt>
<wgt id='2074'>0.81024E+02</wgt>
<wgt id='2075'>0.80865E+02</wgt>
<wgt id='2076'>0.81235E+02</wgt>
<wgt id='2077'>0.81305E+02</wgt>
<wgt id='2078'>0.81233E+02</wgt>
<wgt id='2079'>0.81050E+02</wgt>
<wgt id='2080'>0.81072E+02</wgt>
<wgt id='2081'>0.81314E+02</wgt>
<wgt id='2082'>0.81300E+02</wgt>
<wgt id='2083'>0.81091E+02</wgt>
<wgt id='2084'>0.81128E+02</wgt>
<wgt id='2085'>0.80938E+02</wgt>
<wgt id='2086'>0.81277E+02</wgt>
<wgt id='2087'>0.81312E+02</wgt>
<wgt id='2088'>0.80956E+02</wgt>
<wgt id='2089'>0.81045E+02</wgt>
<wgt id='2090'>0.80970E+02</wgt>
<wgt id='2091'>0.81193E+02</wgt>
<wgt id='2092'>0.81030E+02</wgt>
<wgt id='2093'>0.81019E+02</wgt>
<wgt id='2094'>0.81135E+02</wgt>
<wgt id='2095'>0.81161E+02</wgt>
<wgt id='2096'>0.81010E+02</wgt>
<wgt id='2097'>0.81115E+02</wgt>
<wgt id='2098'>0.81066E+02</wgt>
<wgt id='2099'>0.81079E+02</wgt>
<wgt id='2100'>0.81104E+02</wgt>
<wgt id='2101'>0.78697E+02</wgt>
<wgt id='2102'>0.83884E+02</wgt>
<wgt id='2200'>0.81362E+02</wgt>
<wgt id='2201'>0.69998E+02</wgt>
<wgt id='2202'>0.72382E+02</wgt>
<wgt id='2203'>0.74189E+02</wgt>
<wgt id='2204'>0.76584E+02</wgt>
<wgt id='2205'>0.79767E+02</wgt>
<wgt id='2206'>0.82560E+02</wgt>
<wgt id='2207'>0.86201E+02</wgt>
<wgt id='2208'>0.88574E+02</wgt>
<wgt id='2300'>0.84677E+02</wgt>
<wgt id='2301'>0.84696E+02</wgt>
<wgt id='2302'>0.84645E+02</wgt>
<wgt id='2303'>0.84612E+02</wgt>
<wgt id='2304'>0.85082E+02</wgt>
<wgt id='2305'>0.84486E+02</wgt>
<wgt id='2306'>0.84574E+02</wgt>
<wgt id='2307'>0.84549E+02</wgt>
<wgt id='2308'>0.84433E+02</wgt>
<wgt id='2309'>0.84815E+02</wgt>
<wgt id='2310'>0.84088E+02</wgt>
<wgt id='2311'>0.84652E+02</wgt>
<wgt id='2312'>0.84667E+02</wgt>
<wgt id='2313'>0.84873E+02</wgt>
<wgt id='2314'>0.85069E+02</wgt>
<wgt id='2315'>0.84104E+02</wgt>
<wgt id='2316'>0.84948E+02</wgt>
<wgt id='2317'>0.84328E+02</wgt>
<wgt id='2318'>0.84707E+02</wgt>
<wgt id='2319'>0.84596E+02</wgt>
<wgt id='2320'>0.84397E+02</wgt>
<wgt id='2321'>0.85415E+02</wgt>
<wgt id='2322'>0.84667E+02</wgt>
<wgt id='2323'>0.84827E+02</wgt>
<wgt id='2324'>0.85236E+02</wgt>
<wgt id='2325'>0.84295E+02</wgt>
<wgt id='2326'>0.84554E+02</wgt>
<wgt id='2327'>0.84678E+02</wgt>
<wgt id='2328'>0.84569E+02</wgt>
<wgt id='2329'>0.85355E+02</wgt>
<wgt id='2330'>0.85523E+02</wgt>
<wgt id='2331'>0.84515E+02</wgt>
<wgt id='2332'>0.84454E+02</wgt>
<wgt id='2333'>0.84541E+02</wgt>
<wgt id='2334'>0.84499E+02</wgt>
<wgt id='2335'>0.84246E+02</wgt>
<wgt id='2336'>0.84161E+02</wgt>
<wgt id='2337'>0.84458E+02</wgt>
<wgt id='2338'>0.84205E+02</wgt>
<wgt id='2339'>0.84708E+02</wgt>
<wgt id='2340'>0.84684E+02</wgt>
<wgt id='2341'>0.84211E+02</wgt>
<wgt id='2342'>0.84405E+02</wgt>
<wgt id='2343'>0.85086E+02</wgt>
<wgt id='2344'>0.84414E+02</wgt>
<wgt id='2345'>0.84437E+02</wgt>
<wgt id='2346'>0.84579E+02</wgt>
<wgt id='2347'>0.85058E+02</wgt>
<wgt id='2348'>0.84906E+02</wgt>
<wgt id='2349'>0.84729E+02</wgt>
<wgt id='2350'>0.85116E+02</wgt>
<wgt id='2351'>0.84866E+02</wgt>
<wgt id='2352'>0.84587E+02</wgt>
<wgt id='2353'>0.84357E+02</wgt>
<wgt id='2354'>0.84607E+02</wgt>
<wgt id='2355'>0.84813E+02</wgt>
<wgt id='2356'>0.84661E+02</wgt>
<wgt id='2357'>0.84475E+02</wgt>
<wgt id='2358'>0.84106E+02</wgt>
<wgt id='2359'>0.84452E+02</wgt>
<wgt id='2360'>0.84554E+02</wgt>
<wgt id='2361'>0.84894E+02</wgt>
<wgt id='2362'>0.85160E+02</wgt>
<wgt id='2363'>0.85039E+02</wgt>
<wgt id='2364'>0.84801E+02</wgt>
<wgt id='2365'>0.84707E+02</wgt>
<wgt id='2366'>0.84875E+02</wgt>
<wgt id='2367'>0.84886E+02</wgt>
<wgt id='2368'>0.84782E+02</wgt>
<wgt id='2369'>0.84705E+02</wgt>
<wgt id='2370'>0.84844E+02</wgt>
<wgt id='2371'>0.84565E+02</wgt>
<wgt id='2372'>0.85021E+02</wgt>
<wgt id='2373'>0.84614E+02</wgt>
<wgt id='2374'>0.84602E+02</wgt>
<wgt id='2375'>0.84454E+02</wgt>
<wgt id='2376'>0.84718E+02</wgt>
<wgt id='2377'>0.84571E+02</wgt>
<wgt id='2378'>0.84653E+02</wgt>
<wgt id='2379'>0.84511E+02</wgt>
<wgt id='2380'>0.84565E+02</wgt>
<wgt id='2381'>0.84615E+02</wgt>
<wgt id='2382'>0.84750E+02</wgt>
<wgt id='2383'>0.84631E+02</wgt>
<wgt id='2384'>0.84527E+02</wgt>
<wgt id='2385'>0.84683E+02</wgt>
<wgt id='2386'>0.84602E+02</wgt>
<wgt id='2387'>0.84761E+02</wgt>
<wgt id='2388'>0.84728E+02</wgt>
<wgt id='2389'>0.85046E+02</wgt>
<wgt id='2390'>0.84550E+02</wgt>
<wgt id='2391'>0.84800E+02</wgt>
<wgt id='2392'>0.84752E+02</wgt>
<wgt id='2393'>0.84410E+02</wgt>
<wgt id='2394'>0.84624E+02</wgt>
<wgt id='2395'>0.84864E+02</wgt>
<wgt id='2396'>0.84505E+02</wgt>
<wgt id='2397'>0.84512E+02</wgt>
<wgt id='2398'>0.84669E+02</wgt>
<wgt id='2399'>0.84777E+02</wgt>
<wgt id='2400'>0.84800E+02</wgt>
<wgt id='2401'>0.82541E+02</wgt>
<wgt id='2402'>0.87614E+02</wgt>
<wgt id='2500'>0.78155E+02</wgt>
<wgt id='2501'>0.80797E+02</wgt>
<wgt id='2600'>0.81705E+02</wgt>
<wgt id='2601'>0.81504E+02</wgt>
<wgt id='2602'>0.81327E+02</wgt>
<wgt id='2603'>0.81792E+02</wgt>
<wgt id='2604'>0.81540E+02</wgt>
<wgt id='2605'>0.80849E+02</wgt>
<wgt id='2606'>0.82200E+02</wgt>
<wgt id='2607'>0.81490E+02</wgt>
<wgt id='2608'>0.81046E+02</wgt>
<wgt id='2609'>0.81684E+02</wgt>
<wgt id='2610'>0.81518E+02</wgt>
<wgt id='2611'>0.81146E+02</wgt>
<wgt id='2612'>0.81234E+02</wgt>
<wgt id='2613'>0.81950E+02</wgt>
<wgt id='2614'>0.81342E+02</wgt>
<wgt id='2615'>0.81847E+02</wgt>
<wgt id='2616'>0.82509E+02</wgt>
<wgt id='2617'>0.82125E+02</wgt>
<wgt id='2618'>0.81338E+02</wgt>
<wgt id='2619'>0.82347E+02</wgt>
<wgt id='2620'>0.81308E+02</wgt>
<wgt id='2621'>0.81514E+02</wgt>
<wgt id='2622'>0.81293E+02</wgt>
<wgt id='2623'>0.81930E+02</wgt>
<wgt id='2624'>0.82203E+02</wgt>
<wgt id='2625'>0.81857E+02</wgt>
<wgt id='2626'>0.81431E+02</wgt>
<wgt id='2627'>0.81168E+02</wgt>
<wgt id='2628'>0.81785E+02</wgt>
<wgt id='2629'>0.81565E+02</wgt>
<wgt id='2630'>0.82114E+02</wgt>
<wgt id='2631'>0.81706E+02</wgt>
<wgt id='2632'>0.81656E+02</wgt>
<wgt id='2633'>0.81682E+02</wgt>
<wgt id='2634'>0.81644E+02</wgt>
<wgt id='2635'>0.81716E+02</wgt>
<wgt id='2636'>0.81653E+02</wgt>
<wgt id='2637'>0.81769E+02</wgt>
<wgt id='2638'>0.81621E+02</wgt>
<wgt id='2639'>0.81563E+02</wgt>
<wgt id='2640'>0.81537E+02</wgt>
<wgt id='2641'>0.81731E+02</wgt>
<wgt id='2642'>0.81650E+02</wgt>
<wgt id='2643'>0.81728E+02</wgt>
<wgt id='2644'>0.81630E+02</wgt>
<wgt id='2645'>0.81611E+02</wgt>
<wgt id='2646'>0.81791E+02</wgt>
<wgt id='2647'>0.81762E+02</wgt>
<wgt id='2648'>0.81659E+02</wgt>
<wgt id='2649'>0.81689E+02</wgt>
<wgt id='2650'>0.81630E+02</wgt>
<wgt id='2651'>0.81098E+02</wgt>
<wgt id='2652'>0.82507E+02</wgt>
<wgt id='2700'>0.80318E+02</wgt>
<wgt id='2701'>0.81098E+02</wgt>
<wgt id='2702'>0.81068E+02</wgt>
<wgt id='2703'>0.82192E+02</wgt>
<wgt id='2704'>0.82507E+02</wgt>
<wgt id='2705'>0.83442E+02</wgt>
<wgt id='2800'>0.83635E+02</wgt>
<wgt id='4000'>0.76953E+02</wgt>
<wgt id='4001'>0.75690E+02</wgt>
<wgt id='4002'>0.76122E+02</wgt>
<wgt id='4003'>0.75809E+02</wgt>
<wgt id='4004'>0.78834E+02</wgt>
<wgt id='4005'>0.75222E+02</wgt>
<wgt id='4006'>0.78685E+02</wgt>
<wgt id='4007'>0.76008E+02</wgt>
<wgt id='4008'>0.77561E+02</wgt>
<wgt id='4009'>0.74729E+02</wgt>
<wgt id='4010'>0.78721E+02</wgt>
<wgt id='4011'>0.76961E+02</wgt>
<wgt id='4012'>0.78091E+02</wgt>
<wgt id='4013'>0.76828E+02</wgt>
<wgt id='4014'>0.76422E+02</wgt>
<wgt id='4015'>0.77975E+02</wgt>
<wgt id='4016'>0.75824E+02</wgt>
<wgt id='4017'>0.78786E+02</wgt>
<wgt id='4018'>0.74836E+02</wgt>
<wgt id='4019'>0.78342E+02</wgt>
<wgt id='4020'>0.73472E+02</wgt>
<wgt id='4021'>0.77737E+02</wgt>
<wgt id='4022'>0.75679E+02</wgt>
<wgt id='4023'>0.77650E+02</wgt>
<wgt id='4024'>0.75914E+02</wgt>
<wgt id='4025'>0.76221E+02</wgt>
<wgt id='4026'>0.78964E+02</wgt>
<wgt id='4027'>0.74800E+02</wgt>
<wgt id='4028'>0.78540E+02</wgt>
<wgt id='4029'>0.75358E+02</wgt>
<wgt id='4030'>0.76686E+02</wgt>
<wgt id='4031'>0.75747E+02</wgt>
<wgt id='4032'>0.79600E+02</wgt>
<wgt id='4033'>0.75763E+02</wgt>
<wgt id='4034'>0.77471E+02</wgt>
<wgt id='4035'>0.75769E+02</wgt>
<wgt id='4036'>0.77550E+02</wgt>
<wgt id='4037'>0.78406E+02</wgt>
<wgt id='4038'>0.75001E+02</wgt>
<wgt id='4039'>0.75818E+02</wgt>
<wgt id='4040'>0.77510E+02</wgt>
<wgt id='4041'>0.76719E+02</wgt>
<wgt id='4042'>0.76626E+02</wgt>
<wgt id='4043'>0.76572E+02</wgt>
<wgt id='4044'>0.76217E+02</wgt>
<wgt id='4045'>0.77036E+02</wgt>
<wgt id='4046'>0.76882E+02</wgt>
<wgt id='4047'>0.76171E+02</wgt>
<wgt id='4048'>0.77010E+02</wgt>
<wgt id='4049'>0.75863E+02</wgt>
<wgt id='4050'>0.77484E+02</wgt>
<wgt id='4051'>0.77290E+02</wgt>
<wgt id='4052'>0.75455E+02</wgt>
<wgt id='4053'>0.76160E+02</wgt>
<wgt id='4054'>0.77646E+02</wgt>
<wgt id='4055'>0.76587E+02</wgt>
<wgt id='4056'>0.76201E+02</wgt>
<wgt id='4057'>0.76523E+02</wgt>
<wgt id='4058'>0.77233E+02</wgt>
<wgt id='4100'>0.77251E+02</wgt>
<wgt id='4101'>0.77095E+02</wgt>
<wgt id='4102'>0.76829E+02</wgt>
<wgt id='4103'>0.76724E+02</wgt>
<wgt id='4200'>0.76496E+02</wgt>
<wgt id='4201'>0.75487E+02</wgt>
<wgt id='4202'>0.75727E+02</wgt>
<wgt id='4203'>0.77554E+02</wgt>
<wgt id='4204'>0.75765E+02</wgt>
<wgt id='4205'>0.76515E+02</wgt>
<wgt id='4206'>0.75765E+02</wgt>
<wgt id='4207'>0.75273E+02</wgt>
<wgt id='4208'>0.75559E+02</wgt>
<wgt id='4209'>0.77019E+02</wgt>
<wgt id='4210'>0.75711E+02</wgt>
<wgt id='4211'>0.77304E+02</wgt>
<wgt id='4212'>0.75755E+02</wgt>
<wgt id='4213'>0.75892E+02</wgt>
<wgt id='4214'>0.76562E+02</wgt>
<wgt id='4215'>0.77591E+02</wgt>
<wgt id='4216'>0.75075E+02</wgt>
<wgt id='4217'>0.73895E+02</wgt>
<wgt id='4218'>0.78196E+02</wgt>
<wgt id='4219'>0.75332E+02</wgt>
<wgt id='4220'>0.77501E+02</wgt>
<wgt id='4221'>0.75980E+02</wgt>
<wgt id='4222'>0.77473E+02</wgt>
<wgt id='4223'>0.73135E+02</wgt>
<wgt id='4224'>0.79016E+02</wgt>
<wgt id='4225'>0.75971E+02</wgt>
<wgt id='4226'>0.76629E+02</wgt>
<wgt id='4227'>0.75718E+02</wgt>
<wgt id='4228'>0.77050E+02</wgt>
<wgt id='4229'>0.75743E+02</wgt>
<wgt id='4230'>0.76158E+02</wgt>
<wgt id='4231'>0.76871E+02</wgt>
<wgt id='4232'>0.75286E+02</wgt>
<wgt id='4233'>0.76833E+02</wgt>
<wgt id='4234'>0.75987E+02</wgt>
<wgt id='4235'>0.77685E+02</wgt>
<wgt id='4236'>0.74954E+02</wgt>
<wgt id='4237'>0.78209E+02</wgt>
<wgt id='4238'>0.74629E+02</wgt>
<wgt id='4239'>0.74678E+02</wgt>
<wgt id='4240'>0.76972E+02</wgt>
<wgt id='4241'>0.76897E+02</wgt>
<wgt id='4242'>0.75605E+02</wgt>
<wgt id='4243'>0.74096E+02</wgt>
<wgt id='4244'>0.80028E+02</wgt>
<wgt id='4245'>0.75793E+02</wgt>
<wgt id='4246'>0.76845E+02</wgt>
<wgt id='4247'>0.77761E+02</wgt>
<wgt id='4248'>0.75440E+02</wgt>
<wgt id='4249'>0.75385E+02</wgt>
<wgt id='4250'>0.77513E+02</wgt>
<wgt id='4251'>0.77081E+02</wgt>
<wgt id='4252'>0.76034E+02</wgt>
<wgt id='4253'>0.77170E+02</wgt>
<wgt id='4254'>0.75425E+02</wgt>
<wgt id='4255'>0.75770E+02</wgt>
<wgt id='4256'>0.76395E+02</wgt>
<wgt id='4257'>0.75723E+02</wgt>
<wgt id='4258'>0.76718E+02</wgt>
<wgt id='4300'>0.74715E+02</wgt>
<wgt id='4301'>0.77395E+02</wgt>
<wgt id='5000'>0.78994E+02</wgt>
<wgt id='5001'>0.78624E+02</wgt>
<wgt id='5002'>0.79469E+02</wgt>
<wgt id='5003'>0.78782E+02</wgt>
<wgt id='5004'>0.79187E+02</wgt>
<wgt id='5005'>0.79066E+02</wgt>
<wgt id='5006'>0.78873E+02</wgt>
<wgt id='5007'>0.79187E+02</wgt>
<wgt id='5008'>0.78836E+02</wgt>
<wgt id='5009'>0.79225E+02</wgt>
<wgt id='5010'>0.78756E+02</wgt>
<wgt id='5011'>0.78021E+02</wgt>
<wgt id='5012'>0.79935E+02</wgt>
<wgt id='5013'>0.79272E+02</wgt>
<wgt id='5014'>0.78796E+02</wgt>
<wgt id='5015'>0.79536E+02</wgt>
<wgt id='5016'>0.79536E+02</wgt>
<wgt id='5017'>0.78888E+02</wgt>
<wgt id='5018'>0.79064E+02</wgt>
<wgt id='5019'>0.78530E+02</wgt>
<wgt id='5020'>0.79637E+02</wgt>
<wgt id='5021'>0.78531E+02</wgt>
<wgt id='5022'>0.79723E+02</wgt>
<wgt id='5023'>0.79012E+02</wgt>
<wgt id='5024'>0.78948E+02</wgt>
<wgt id='5025'>0.79342E+02</wgt>
<wgt id='5026'>0.78606E+02</wgt>
<wgt id='5027'>0.79270E+02</wgt>
<wgt id='5028'>0.78244E+02</wgt>
<wgt id='5029'>0.79182E+02</wgt>
<wgt id='5030'>0.78887E+02</wgt>
<wgt id='5031'>0.79514E+02</wgt>
<wgt id='5032'>0.77513E+02</wgt>
<wgt id='5033'>0.79266E+02</wgt>
<wgt id='5034'>0.78703E+02</wgt>
<wgt id='5035'>0.78684E+02</wgt>
<wgt id='5036'>0.79417E+02</wgt>
<wgt id='5037'>0.78510E+02</wgt>
<wgt id='5038'>0.79261E+02</wgt>
<wgt id='5039'>0.79087E+02</wgt>
<wgt id='5040'>0.78710E+02</wgt>
<wgt id='5041'>0.78938E+02</wgt>
<wgt id='5042'>0.79035E+02</wgt>
<wgt id='5043'>0.79330E+02</wgt>
<wgt id='5044'>0.78627E+02</wgt>
<wgt id='5045'>0.78818E+02</wgt>
<wgt id='5046'>0.79452E+02</wgt>
<wgt id='5047'>0.78994E+02</wgt>
<wgt id='5048'>0.78845E+02</wgt>
<wgt id='5049'>0.78961E+02</wgt>
<wgt id='5050'>0.79076E+02</wgt>
<wgt id='5051'>0.78249E+02</wgt>
<wgt id='5052'>0.79677E+02</wgt>
<wgt id='5053'>0.78835E+02</wgt>
<wgt id='5054'>0.79228E+02</wgt>
<wgt id='5055'>0.79036E+02</wgt>
<wgt id='5056'>0.78984E+02</wgt>
<wgt id='5057'>0.77841E+02</wgt>
<wgt id='5058'>0.79661E+02</wgt>
<wgt id='5059'>0.78870E+02</wgt>
<wgt id='5060'>0.79050E+02</wgt>
<wgt id='5061'>0.78011E+02</wgt>
<wgt id='5062'>0.79075E+02</wgt>
<wgt id='5063'>0.79889E+02</wgt>
<wgt id='5064'>0.78909E+02</wgt>
<wgt id='5100'>0.78994E+02</wgt>
<wgt id='5101'>0.78916E+02</wgt>
<wgt id='6000'>0.78031E+02</wgt>
<wgt id='6001'>0.77780E+02</wgt>
<wgt id='6002'>0.77350E+02</wgt>
<wgt id='6003'>0.78118E+02</wgt>
<wgt id='6004'>0.76067E+02</wgt>
<wgt id='6005'>0.77859E+02</wgt>
<wgt id='6006'>0.78280E+02</wgt>
<wgt id='6007'>0.78030E+02</wgt>
<wgt id='6008'>0.78213E+02</wgt>
<wgt id='6009'>0.77877E+02</wgt>
<wgt id='6010'>0.77780E+02</wgt>
<wgt id='6011'>0.78429E+02</wgt>
<wgt id='6012'>0.78599E+02</wgt>
<wgt id='6013'>0.77885E+02</wgt>
<wgt id='6014'>0.78145E+02</wgt>
<wgt id='6015'>0.77937E+02</wgt>
<wgt id='6016'>0.78946E+02</wgt>
<wgt id='6017'>0.78250E+02</wgt>
<wgt id='6018'>0.78681E+02</wgt>
<wgt id='6019'>0.76817E+02</wgt>
<wgt id='6020'>0.78401E+02</wgt>
<wgt id='6021'>0.77346E+02</wgt>
<wgt id='6022'>0.77841E+02</wgt>
<wgt id='6023'>0.77848E+02</wgt>
<wgt id='6024'>0.78286E+02</wgt>
<wgt id='6025'>0.78484E+02</wgt>
<wgt id='6026'>0.78096E+02</wgt>
<wgt id='6027'>0.77912E+02</wgt>
<wgt id='6028'>0.77938E+02</wgt>
<wgt id='6029'>0.77769E+02</wgt>
<wgt id='6030'>0.78047E+02</wgt>
<wgt id='6031'>0.77843E+02</wgt>
<wgt id='6032'>0.78190E+02</wgt>
<wgt id='6033'>0.78095E+02</wgt>
<wgt id='6034'>0.78227E+02</wgt>
<wgt id='6035'>0.78189E+02</wgt>
<wgt id='6036'>0.77964E+02</wgt>
<wgt id='6037'>0.77913E+02</wgt>
<wgt id='6038'>0.79492E+02</wgt>
<wgt id='6039'>0.78133E+02</wgt>
<wgt id='6040'>0.78380E+02</wgt>
<wgt id='6041'>0.77211E+02</wgt>
<wgt id='6042'>0.79720E+02</wgt>
<wgt id='7000'>0.54063E+02</wgt>
<wgt id='7001'>0.54039E+02</wgt>
<wgt id='7002'>0.53902E+02</wgt>
<wgt id='7003'>0.53806E+02</wgt>
<wgt id='7004'>0.54135E+02</wgt>
<wgt id='7005'>0.54002E+02</wgt>
<wgt id='7006'>0.53938E+02</wgt>
<wgt id='7007'>0.53706E+02</wgt>
<wgt id='7008'>0.54231E+02</wgt>
<wgt id='7009'>0.54071E+02</wgt>
<wgt id='7010'>0.53872E+02</wgt>
<wgt id='7011'>0.54234E+02</wgt>
<wgt id='7012'>0.53706E+02</wgt>
<wgt id='7013'>0.53897E+02</wgt>
<wgt id='7014'>0.54040E+02</wgt>
<wgt id='7015'>0.53990E+02</wgt>
<wgt id='7016'>0.53851E+02</wgt>
<wgt id='7017'>0.53965E+02</wgt>
<wgt id='7018'>0.53975E+02</wgt>
<wgt id='7019'>0.53974E+02</wgt>
<wgt id='7020'>0.53958E+02</wgt>
<wgt id='7021'>0.54879E+02</wgt>
<wgt id='7022'>0.53070E+02</wgt>
<wgt id='7023'>0.55342E+02</wgt>
<wgt id='7024'>0.52749E+02</wgt>
<wgt id='7025'>0.57266E+02</wgt>
<wgt id='7026'>0.51301E+02</wgt>
<wgt id='7027'>0.56362E+02</wgt>
<wgt id='7028'>0.51916E+02</wgt>
<wgt id='8000'>0.75205E+02</wgt>
<wgt id='8001'>0.75193E+02</wgt>
<wgt id='8002'>0.75227E+02</wgt>
<wgt id='8003'>0.75060E+02</wgt>
<wgt id='8004'>0.75210E+02</wgt>
<wgt id='8005'>0.75468E+02</wgt>
<wgt id='8006'>0.74723E+02</wgt>
<wgt id='8007'>0.75550E+02</wgt>
<wgt id='8008'>0.75227E+02</wgt>
<wgt id='8009'>0.74839E+02</wgt>
<wgt id='8010'>0.75145E+02</wgt>
<wgt id='8011'>0.75306E+02</wgt>
<wgt id='8012'>0.75167E+02</wgt>
<wgt id='8013'>0.75205E+02</wgt>
<wgt id='8014'>0.75309E+02</wgt>
<wgt id='8015'>0.75228E+02</wgt>
<wgt id='8016'>0.74989E+02</wgt>
<wgt id='8017'>0.75127E+02</wgt>
<wgt id='8018'>0.75046E+02</wgt>
<wgt id='8019'>0.75139E+02</wgt>
<wgt id='8020'>0.75958E+02</wgt>
<wgt id='8021'>0.75067E+02</wgt>
<wgt id='8022'>0.74897E+02</wgt>
<wgt id='8023'>0.75022E+02</wgt>
<wgt id='8024'>0.75180E+02</wgt>
<wgt id='8025'>0.75015E+02</wgt>
<wgt id='8026'>0.75516E+02</wgt>
<wgt id='8027'>0.74749E+02</wgt>
<wgt id='8028'>0.75489E+02</wgt>
<wgt id='8029'>0.75035E+02</wgt>
<wgt id='3000'>0.81104E+02</wgt>
<wgt id='3001'>0.90118E+02</wgt>
<wgt id='3002'>0.82133E+02</wgt>
<wgt id='3003'>0.83084E+02</wgt>
<wgt id='3004'>0.82737E+02</wgt>
<wgt id='3005'>0.81658E+02</wgt>
<wgt id='3006'>0.83291E+02</wgt>
<wgt id='3007'>0.80977E+02</wgt>
<wgt id='3008'>0.78427E+02</wgt>
<wgt id='3009'>0.77055E+02</wgt>
<wgt id='3010'>0.80438E+02</wgt>
<wgt id='3011'>0.79131E+02</wgt>
<wgt id='3012'>0.79848E+02</wgt>
<wgt id='3013'>0.81942E+02</wgt>
<wgt id='3014'>0.81320E+02</wgt>
<wgt id='3015'>0.79866E+02</wgt>
<wgt id='3016'>0.80816E+02</wgt>
<wgt id='3017'>0.84465E+02</wgt>
<wgt id='3018'>0.79567E+02</wgt>
<wgt id='3019'>0.82931E+02</wgt>
<wgt id='3020'>0.77708E+02</wgt>
<wgt id='3021'>0.79950E+02</wgt>
<wgt id='3022'>0.83806E+02</wgt>
<wgt id='3023'>0.81991E+02</wgt>
<wgt id='3024'>0.82187E+02</wgt>
<wgt id='3025'>0.76731E+02</wgt>
<wgt id='3026'>0.82894E+02</wgt>
<wgt id='3027'>0.86765E+02</wgt>
<wgt id='3028'>0.81654E+02</wgt>
<wgt id='3029'>0.80798E+02</wgt>
<wgt id='3030'>0.81941E+02</wgt>
<wgt id='3031'>0.81531E+02</wgt>
<wgt id='3032'>0.79797E+02</wgt>
<wgt id='3033'>0.84758E+02</wgt>
<wgt id='3034'>0.80174E+02</wgt>
<wgt id='3035'>0.81625E+02</wgt>
<wgt id='3036'>0.80710E+02</wgt>
<wgt id='3037'>0.80646E+02</wgt>
<wgt id='3038'>0.79249E+02</wgt>
<wgt id='3039'>0.78506E+02</wgt>
<wgt id='3040'>0.78998E+02</wgt>
<wgt id='3041'>0.81988E+02</wgt>
<wgt id='3042'>0.82092E+02</wgt>
<wgt id='3043'>0.87739E+02</wgt>
<wgt id='3044'>0.81426E+02</wgt>
<wgt id='3045'>0.81420E+02</wgt>
<wgt id='3046'>0.81504E+02</wgt>
<wgt id='3047'>0.81412E+02</wgt>
<wgt id='3048'>0.79969E+02</wgt>
<wgt id='3049'>0.80096E+02</wgt>
<wgt id='3050'>0.80593E+02</wgt>
<wgt id='3051'>0.82833E+02</wgt>
<wgt id='3052'>0.77952E+02</wgt>
<wgt id='3053'>0.80196E+02</wgt>
<wgt id='3054'>0.84075E+02</wgt>
<wgt id='3055'>0.83621E+02</wgt>
<wgt id='3056'>0.83290E+02</wgt>
<wgt id='3057'>0.83535E+02</wgt>
<wgt id='3058'>0.80844E+02</wgt>
<wgt id='3059'>0.77893E+02</wgt>
<wgt id='3060'>0.81507E+02</wgt>
<wgt id='3061'>0.80731E+02</wgt>
<wgt id='3062'>0.83859E+02</wgt>
<wgt id='3063'>0.81950E+02</wgt>
<wgt id='3064'>0.80836E+02</wgt>
<wgt id='3065'>0.80461E+02</wgt>
<wgt id='3066'>0.80909E+02</wgt>
<wgt id='3067'>0.85199E+02</wgt>
<wgt id='3068'>0.83280E+02</wgt>
<wgt id='3069'>0.79510E+02</wgt>
<wgt id='3070'>0.80675E+02</wgt>
<wgt id='3071'>0.82873E+02</wgt>
<wgt id='3072'>0.84410E+02</wgt>
<wgt id='3073'>0.73509E+02</wgt>
<wgt id='3074'>0.76055E+02</wgt>
<wgt id='3075'>0.80788E+02</wgt>
<wgt id='3076'>0.85813E+02</wgt>
<wgt id='3077'>0.78252E+02</wgt>
<wgt id='3078'>0.77043E+02</wgt>
<wgt id='3079'>0.80585E+02</wgt>
<wgt id='3080'>0.83164E+02</wgt>
<wgt id='3081'>0.81838E+02</wgt>
<wgt id='3082'>0.80816E+02</wgt>
<wgt id='3083'>0.77302E+02</wgt>
<wgt id='3084'>0.80710E+02</wgt>
<wgt id='3085'>0.78341E+02</wgt>
<wgt id='3086'>0.87516E+02</wgt>
<wgt id='3087'>0.79600E+02</wgt>
<wgt id='3088'>0.83599E+02</wgt>
<wgt id='3089'>0.70080E+02</wgt>
<wgt id='3090'>0.78931E+02</wgt>
<wgt id='3091'>0.80821E+02</wgt>
<wgt id='3092'>0.72752E+02</wgt>
<wgt id='3093'>0.79433E+02</wgt>
<wgt id='3094'>0.82517E+02</wgt>
<wgt id='3095'>0.80614E+02</wgt>
<wgt id='3096'>0.79225E+02</wgt>
<wgt id='3097'>0.85020E+02</wgt>
<wgt id='3098'>0.84181E+02</wgt>
<wgt id='3099'>0.81567E+02</wgt>
<wgt id='3100'>0.79911E+02</wgt>
<wgt id='3200'>0.81620E+02</wgt>
<wgt id='3201'>0.80645E+02</wgt>
<wgt id='3202'>0.84702E+02</wgt>
<wgt id='3203'>0.79574E+02</wgt>
<wgt id='3204'>0.86097E+02</wgt>
<wgt id='3205'>0.84736E+02</wgt>
<wgt id='3206'>0.80350E+02</wgt>
<wgt id='3207'>0.81200E+02</wgt>
<wgt id='3208'>0.83006E+02</wgt>
<wgt id='3209'>0.82252E+02</wgt>
<wgt id='3210'>0.79241E+02</wgt>
<wgt id='3211'>0.79286E+02</wgt>
<wgt id='3212'>0.79777E+02</wgt>
<wgt id='3213'>0.81924E+02</wgt>
<wgt id='3214'>0.84251E+02</wgt>
<wgt id='3215'>0.81606E+02</wgt>
<wgt id='3216'>0.85356E+02</wgt>
<wgt id='3217'>0.77290E+02</wgt>
<wgt id='3218'>0.79997E+02</wgt>
<wgt id='3219'>0.79642E+02</wgt>
<wgt id='3220'>0.79374E+02</wgt>
<wgt id='3221'>0.84508E+02</wgt>
<wgt id='3222'>0.83686E+02</wgt>
<wgt id='3223'>0.81147E+02</wgt>
<wgt id='3224'>0.80984E+02</wgt>
<wgt id='3225'>0.84976E+02</wgt>
<wgt id='3226'>0.78149E+02</wgt>
<wgt id='3227'>0.84334E+02</wgt>
<wgt id='3228'>0.84756E+02</wgt>
<wgt id='3229'>0.81065E+02</wgt>
<wgt id='3230'>0.82381E+02</wgt>
<wgt id='3231'>0.81322E+02</wgt>
<wgt id='3232'>0.83686E+02</wgt>
<wgt id='3233'>0.85035E+02</wgt>
<wgt id='3234'>0.80497E+02</wgt>
<wgt id='3235'>0.82761E+02</wgt>
<wgt id='3236'>0.81596E+02</wgt>
<wgt id='3237'>0.81896E+02</wgt>
<wgt id='3238'>0.83188E+02</wgt>
<wgt id='3239'>0.82994E+02</wgt>
<wgt id='3240'>0.77754E+02</wgt>
<wgt id='3241'>0.82891E+02</wgt>
<wgt id='3242'>0.79863E+02</wgt>
<wgt id='3243'>0.81991E+02</wgt>
<wgt id='3244'>0.85123E+02</wgt>
<wgt id='3245'>0.77983E+02</wgt>
<wgt id='3246'>0.83623E+02</wgt>
<wgt id='3247'>0.81263E+02</wgt>
<wgt id='3248'>0.79562E+02</wgt>
<wgt id='3249'>0.84348E+02</wgt>
<wgt id='3250'>0.81406E+02</wgt>
<wgt id='3251'>0.79885E+02</wgt>
<wgt id='3252'>0.84559E+02</wgt>
<wgt id='3253'>0.80779E+02</wgt>
<wgt id='3254'>0.78797E+02</wgt>
<wgt id='3255'>0.80622E+02</wgt>
<wgt id='3256'>0.83744E+02</wgt>
<wgt id='3257'>0.80008E+02</wgt>
<wgt id='3258'>0.82071E+02</wgt>
<wgt id='3259'>0.85923E+02</wgt>
<wgt id='3260'>0.82312E+02</wgt>
<wgt id='3261'>0.86392E+02</wgt>
<wgt id='3262'>0.77011E+02</wgt>
<wgt id='3263'>0.77858E+02</wgt>
<wgt id='3264'>0.78291E+02</wgt>
<wgt id='3265'>0.82779E+02</wgt>
<wgt id='3266'>0.81896E+02</wgt>
<wgt id='3267'>0.81027E+02</wgt>
<wgt id='3268'>0.86664E+02</wgt>
<wgt id='3269'>0.84132E+02</wgt>
<wgt id='3270'>0.77644E+02</wgt>
<wgt id='3271'>0.78403E+02</wgt>
<wgt id='3272'>0.79140E+02</wgt>
<wgt id='3273'>0.80531E+02</wgt>
<wgt id='3274'>0.82493E+02</wgt>
<wgt id='3275'>0.83038E+02</wgt>
<wgt id='3276'>0.81309E+02</wgt>
<wgt id='3277'>0.83228E+02</wgt>
<wgt id='3278'>0.83386E+02</wgt>
<wgt id='3279'>0.82564E+02</wgt>
<wgt id='3280'>0.82300E+02</wgt>
<wgt id='3281'>0.81467E+02</wgt>
<wgt id='3282'>0.82812E+02</wgt>
<wgt id='3283'>0.78317E+02</wgt>
<wgt id='3284'>0.81036E+02</wgt>
<wgt id='3285'>0.82842E+02</wgt>
<wgt id='3286'>0.75592E+02</wgt>
<wgt id='3287'>0.80151E+02</wgt>
<wgt id='3288'>0.78851E+02</wgt>
<wgt id='3289'>0.80630E+02</wgt>
<wgt id='3290'>0.84595E+02</wgt>
<wgt id='3291'>0.79679E+02</wgt>
<wgt id='3292'>0.79088E+02</wgt>
<wgt id='3293'>0.82092E+02</wgt>
<wgt id='3294'>0.81222E+02</wgt>
<wgt id='3295'>0.79355E+02</wgt>
<wgt id='3296'>0.79072E+02</wgt>
<wgt id='3297'>0.85366E+02</wgt>
<wgt id='3298'>0.81954E+02</wgt>
<wgt id='3299'>0.80312E+02</wgt>
<wgt id='3300'>0.83714E+02</wgt>
<wgt id='3301'>0.81098E+02</wgt>
<wgt id='3302'>0.82507E+02</wgt>
<wgt id='3400'>0.78081E+02</wgt>
<wgt id='3401'>0.76403E+02</wgt>
<wgt id='3402'>0.79972E+02</wgt>
<wgt id='3403'>0.80310E+02</wgt>
<wgt id='3404'>0.77979E+02</wgt>
<wgt id='3405'>0.75610E+02</wgt>
<wgt id='3406'>0.80332E+02</wgt>
<wgt id='3407'>0.76759E+02</wgt>
<wgt id='3408'>0.76392E+02</wgt>
<wgt id='3409'>0.77350E+02</wgt>
<wgt id='3410'>0.79736E+02</wgt>
<wgt id='3411'>0.76032E+02</wgt>
<wgt id='3412'>0.74448E+02</wgt>
<wgt id='3413'>0.76877E+02</wgt>
<wgt id='3414'>0.78930E+02</wgt>
<wgt id='3415'>0.77704E+02</wgt>
<wgt id='3416'>0.80883E+02</wgt>
<wgt id='3417'>0.79146E+02</wgt>
<wgt id='3418'>0.78289E+02</wgt>
<wgt id='3419'>0.77700E+02</wgt>
<wgt id='3420'>0.79191E+02</wgt>
<wgt id='3421'>0.78839E+02</wgt>
<wgt id='3422'>0.76707E+02</wgt>
<wgt id='3423'>0.77366E+02</wgt>
<wgt id='3424'>0.77883E+02</wgt>
<wgt id='3425'>0.80918E+02</wgt>
<wgt id='3426'>0.77789E+02</wgt>
<wgt id='3427'>0.82824E+02</wgt>
<wgt id='3428'>0.78894E+02</wgt>
<wgt id='3429'>0.78471E+02</wgt>
<wgt id='3430'>0.73661E+02</wgt>
<wgt id='3431'>0.78581E+02</wgt>
<wgt id='3432'>0.79957E+02</wgt>
<wgt id='3433'>0.79542E+02</wgt>
<wgt id='3434'>0.78243E+02</wgt>
<wgt id='3435'>0.76278E+02</wgt>
<wgt id='3436'>0.79724E+02</wgt>
<wgt id='3437'>0.80863E+02</wgt>
<wgt id='3438'>0.79221E+02</wgt>
<wgt id='3439'>0.76750E+02</wgt>
<wgt id='3440'>0.80743E+02</wgt>
<wgt id='3441'>0.78822E+02</wgt>
<wgt id='3442'>0.81151E+02</wgt>
<wgt id='3443'>0.79347E+02</wgt>
<wgt id='3444'>0.77080E+02</wgt>
<wgt id='3445'>0.75937E+02</wgt>
<wgt id='3446'>0.76541E+02</wgt>
<wgt id='3447'>0.76192E+02</wgt>
<wgt id='3448'>0.77530E+02</wgt>
<wgt id='3449'>0.81493E+02</wgt>
<wgt id='3450'>0.76914E+02</wgt>
<wgt id='3451'>0.76354E+02</wgt>
<wgt id='3452'>0.79034E+02</wgt>
<wgt id='3453'>0.79797E+02</wgt>
<wgt id='3454'>0.72734E+02</wgt>
<wgt id='3455'>0.76453E+02</wgt>
<wgt id='3456'>0.75980E+02</wgt>
<wgt id='3457'>0.77282E+02</wgt>
<wgt id='3458'>0.78255E+02</wgt>
<wgt id='3459'>0.77311E+02</wgt>
<wgt id='3460'>0.75946E+02</wgt>
<wgt id='3461'>0.80610E+02</wgt>
<wgt id='3462'>0.78777E+02</wgt>
<wgt id='3463'>0.77308E+02</wgt>
<wgt id='3464'>0.78260E+02</wgt>
<wgt id='3465'>0.76659E+02</wgt>
<wgt id='3466'>0.76513E+02</wgt>
<wgt id='3467'>0.78253E+02</wgt>
<wgt id='3468'>0.81129E+02</wgt>
<wgt id='3469'>0.77892E+02</wgt>
<wgt id='3470'>0.83034E+02</wgt>
<wgt id='3471'>0.76805E+02</wgt>
<wgt id='3472'>0.74232E+02</wgt>
<wgt id='3473'>0.77742E+02</wgt>
<wgt id='3474'>0.78285E+02</wgt>
<wgt id='3475'>0.78107E+02</wgt>
<wgt id='3476'>0.79718E+02</wgt>
<wgt id='3477'>0.77354E+02</wgt>
<wgt id='3478'>0.77795E+02</wgt>
<wgt id='3479'>0.77696E+02</wgt>
<wgt id='3480'>0.81250E+02</wgt>
<wgt id='3481'>0.81108E+02</wgt>
<wgt id='3482'>0.76746E+02</wgt>
<wgt id='3483'>0.78318E+02</wgt>
<wgt id='3484'>0.79265E+02</wgt>
<wgt id='3485'>0.77883E+02</wgt>
<wgt id='3486'>0.80011E+02</wgt>
<wgt id='3487'>0.75610E+02</wgt>
<wgt id='3488'>0.77098E+02</wgt>
<wgt id='3489'>0.78146E+02</wgt>
<wgt id='3490'>0.76684E+02</wgt>
<wgt id='3491'>0.76619E+02</wgt>
<wgt id='3492'>0.78923E+02</wgt>
<wgt id='3493'>0.76548E+02</wgt>
<wgt id='3494'>0.79022E+02</wgt>
<wgt id='3495'>0.75604E+02</wgt>
<wgt id='3496'>0.77936E+02</wgt>
<wgt id='3497'>0.79738E+02</wgt>
<wgt id='3498'>0.79320E+02</wgt>
<wgt id='3499'>0.77428E+02</wgt>
<wgt id='3500'>0.74824E+02</wgt>
</rwgt>
</event>
<event>
     13 322200  8.11039E+01  2.10462E+02 -1.00000E+00  1.09581E-01
      21    -1     0     0   503   504  0.000000000E+00  0.000000000E+00  3.367714124E+02  3.367714124E+02  0.000000000E+00  0.00000E+00  9.000E+00
      21    -1     0     0   502   503  0.000000000E+00  0.000000000E+00 -1.521329558E+03  1.521329558E+03  0.000000000E+00  0.00000E+00  9.000E+00
       6     2     1     2   502     0 -7.781296670E+01 -1.795004268E+02 -1.368233210E+03  1.392946190E+03  1.730945160E+02  0.00000E+00  9.000E+00
      -6     2     1     2     0   505  1.717863930E+01 -2.203831466E+01  2.082994087E+01  1.990478094E+02  1.959728324E+02  0.00000E+00  9.000E+00
      21     1     1     2   505   504  6.063432740E+01  2.015387415E+02  1.628451229E+02  2.661069711E+02  2.697398305E-06  0.00000E+00  9.000E+00
      24     2     3     3     0     0 -7.770497104E+01 -1.353721602E+02 -6.467869852E+02  6.701339227E+02  7.988983531E+01  0.00000E+00  9.000E+00
       5     1     3     3   502     0 -1.079956609E-01 -4.412826664E+01 -7.214462247E+02  7.228122677E+02  5.060000000E+00  0.00000E+00 -1.000E+00
     -24     2     4     4     0     0  6.355870354E+00 -4.766642720E-01  9.298159376E+01  1.228014868E+02  7.996251673E+01  0.00000E+00  9.000E+00
      -5     1     4     4     0   505  1.082276895E+01 -2.156165039E+01 -7.215165289E+01  7.624632260E+01  5.060000000E+00  0.00000E+00  1.000E+00
     -11     1     6     6     0     0 -3.106756520E+01 -4.985703678E+01 -1.112157793E+02  1.257770539E+02  5.100000000E-04  0.00000E+00  1.000E+00
      12     1     6     6     0     0 -4.663740585E+01 -8.551512341E+01 -5.355712060E+02  5.443568688E+02  0.000000000E+00  0.00000E+00 -1.000E+00
      15     1     8     8     0     0  3.484524222E+01 -1.538016060E+00  1.196818294E+01  3.691817345E+01  1.777000000E+00  0.00000E+00 -1.000E+00
     -16     1     8     8     0     0 -2.848937187E+01  1.061351788E+00  8.101341082E+01  8.588331333E+01  0.000000000E+00  0.00000E+00  1.000E+00
#rwgt            1           1   1193.3169864623940               10       16377           0
<rwgt>
<wgt id='1001'>0.81104E+02</wgt>
<wgt id='1002'>0.87628E+02</wgt>
<wgt id='1003'>0.72683E+02</wgt>
<wgt id='1004'>0.68532E+02</wgt>
<wgt id='1005'>0.72923E+02</wgt>
<wgt id='1006'>0.62782E+02</wgt>
<wgt id='1007'>0.97584E+02</wgt>
<wgt id='1008'>0.10739E+03</wgt>
<wgt id='1009'>0.85067E+02</wgt>
<wgt id='2000'>0.81104E+02</wgt>
<wgt id='2001'>0.81059E+02</wgt>
<wgt id='2002'>0.81025E+02</wgt>
<wgt id='2003'>0.80918E+02</wgt>
<wgt id='2004'>0.81478E+02</wgt>
<wgt id='2005'>0.80679E+02</wgt>
<wgt id='2006'>0.81210E+02</wgt>
<wgt id='2007'>0.81135E+02</wgt>
<wgt id='2008'>0.81195E+02</wgt>
<wgt id='2009'>0.80933E+02</wgt>
<wgt id='2010'>0.80824E+02</wgt>
<wgt id='2011'>0.81186E+02</wgt>
<wgt id='2012'>0.81530E+02</wgt>
<wgt id='2013'>0.81048E+02</wgt>
<wgt id='2014'>0.81207E+02</wgt>
<wgt id='2015'>0.81437E+02</wgt>
<wgt id='2016'>0.81059E+02</wgt>
<wgt id='2017'>0.81103E+02</wgt>
<wgt id='2018'>0.80845E+02</wgt>
<wgt id='2019'>0.81189E+02</wgt>
<wgt id='2020'>0.81007E+02</wgt>
<wgt id='2021'>0.81194E+02</wgt>
<wgt id='2022'>0.81310E+02</wgt>
<wgt id='2023'>0.80726E+02</wgt>
<wgt id='2024'>0.81173E+02</wgt>
<wgt id='2025'>0.80843E+02</wgt>
<wgt id='2026'>0.80880E+02</wgt>
<wgt id='2027'>0.81584E+02</wgt>
<wgt id='2028'>0.80337E+02</wgt>
<wgt id='2029'>0.80787E+02</wgt>
<wgt id='2030'>0.81402E+02</wgt>
<wgt id='2031'>0.80728E+02</wgt>
<wgt id='2032'>0.81002E+02</wgt>
<wgt id='2033'>0.80931E+02</wgt>
<wgt id='2034'>0.80648E+02</wgt>
<wgt id='2035'>0.81479E+02</wgt>
<wgt id='2036'>0.81277E+02</wgt>
<wgt id='2037'>0.80948E+02</wgt>
<wgt id='2038'>0.81010E+02</wgt>
<wgt id='2039'>0.81033E+02</wgt>
<wgt id='2040'>0.81031E+02</wgt>
<wgt id='2041'>0.80816E+02</wgt>
<wgt id='2042'>0.81243E+02</wgt>
<wgt id='2043'>0.81122E+02</wgt>
<wgt id='2044'>0.81131E+02</wgt>
<wgt id='2045'>0.81203E+02</wgt>
<wgt id='2046'>0.80813E+02</wgt>
<wgt id='2047'>0.81147E+02</wgt>
<wgt id='2048'>0.81095E+02</wgt>
<wgt id='2049'>0.80946E+02</wgt>
<wgt id='2050'>0.81054E+02</wgt>
<wgt id='2051'>0.81004E+02</wgt>
<wgt id='2052'>0.81290E+02</wgt>
<wgt id='2053'>0.81143E+02</wgt>
<wgt id='2054'>0.81105E+02</wgt>
<wgt id='2055'>0.80963E+02</wgt>
<wgt id='2056'>0.81035E+02</wgt>
<wgt id='2057'>0.81129E+02</wgt>
<wgt id='2058'>0.81175E+02</wgt>
<wgt id='2059'>0.81174E+02</wgt>
<wgt id='2060'>0.81043E+02</wgt>
<wgt id='2061'>0.81038E+02</wgt>
<wgt id='2062'>0.81174E+02</wgt>
<wgt id='2063'>0.81122E+02</wgt>
<wgt id='2064'>0.81108E+02</wgt>
<wgt id='2065'>0.81196E+02</wgt>
<wgt id='2066'>0.81049E+02</wgt>
<wgt id='2067'>0.80998E+02</wgt>
<wgt id='2068'>0.81277E+02</wgt>
<wgt id='2069'>0.81091E+02</wgt>
<wgt id='2070'>0.81172E+02</wgt>
<wgt id='2071'>0.81026E+02</wgt>
<wgt id='2072'>0.81032E+02</wgt>
<wgt id='2073'>0.81134E+02</wgt>
<wgt id='2074'>0.81039E+02</wgt>
<wgt id='2075'>0.81093E+02</wgt>
<wgt id='2076'>0.81105E+02</wgt>
<wgt id='2077'>0.81180E+02</wgt>
<wgt id='2078'>0.81127E+02</wgt>
<wgt id='2079'>0.81059E+02</wgt>
<wgt id='2080'>0.81100E+02</wgt>
<wgt id='2081'>0.81060E+02</wgt>
<wgt id='2082'>0.81119E+02</wgt>
<wgt id='2083'>0.81229E+02</wgt>
<wgt id='2084'>0.81089E+02</wgt>
<wgt id='2085'>0.81135E+02</wgt>
<wgt id='2086'>0.81086E+02</wgt>
<wgt id='2087'>0.81117E+02</wgt>
<wgt id='2088'>0.81084E+02</wgt>
<wgt id='2089'>0.81066E+02</wgt>
<wgt id='2090'>0.81139E+02</wgt>
<wgt id='2091'>0.81128E+02</wgt>
<wgt id='2092'>0.81171E+02</wgt>
<wgt id='2093'>0.81045E+02</wgt>
<wgt id='2094'>0.81104E+02</wgt>
<wgt id='2095'>0.81150E+02</wgt>
<wgt id='2096'>0.81079E+02</wgt>
<wgt id='2097'>0.81138E+02</wgt>
<wgt id='2098'>0.81119E+02</wgt>
<wgt id='2099'>0.81123E+02</wgt>
<wgt id='2100'>0.81104E+02</wgt>
<wgt id='2101'>0.78304E+02</wgt>
<wgt id='2102'>0.83588E+02</wgt>
<wgt id='2200'>0.80803E+02</wgt>
<wgt id='2201'>0.69027E+02</wgt>
<wgt id='2202'>0.71325E+02</wgt>
<wgt id='2203'>0.74017E+02</wgt>
<wgt id='2204'>0.75885E+02</wgt>
<wgt id='2205'>0.79482E+02</wgt>
<wgt id='2206'>0.82485E+02</wgt>
<wgt id='2207'>0.85739E+02</wgt>
<wgt id='2208'>0.89119E+02</wgt>
<wgt id='2300'>0.87777E+02</wgt>
<wgt id='2301'>0.87803E+02</wgt>
<wgt id='2302'>0.87787E+02</wgt>
<wgt id='2303'>0.87776E+02</wgt>
<wgt id='2304'>0.88155E+02</wgt>
<wgt id='2305'>0.87874E+02</wgt>
<wgt id='2306'>0.87721E+02</wgt>
<wgt id='2307'>0.87922E+02</wgt>
<wgt id='2308'>0.87587E+02</wgt>
<wgt id='2309'>0.87894E+02</wgt>
<wgt id='2310'>0.87557E+02</wgt>
<wgt id='2311'>0.87702E+02</wgt>
<wgt id='2312'>0.87982E+02</wgt>
<wgt id='2313'>0.87898E+02</wgt>
<wgt id='2314'>0.87890E+02</wgt>
<wgt id='2315'>0.87641E+02</wgt>
<wgt id='2316'>0.87879E+02</wgt>
<wgt id='2317'>0.87842E+02</wgt>
<wgt id='2318'>0.87995E+02</wgt>
<wgt id='2319'>0.87679E+02</wgt>
<wgt id='2320'>0.87723E+02</wgt>
<wgt id='2321'>0.87591E+02</wgt>
<wgt id='2322'>0.87694E+02</wgt>
<wgt id='2323'>0.87581E+02</wgt>
<wgt id='2324'>0.87588E+02</wgt>
<wgt id='2325'>0.87891E+02</wgt>
<wgt id='2326'>0.87850E+02</wgt>
<wgt id='2327'>0.87827E+02</wgt>
<wgt id='2328'>0.87493E+02</wgt>
<wgt id='2329'>0.87674E+02</wgt>
<wgt id='2330'>0.88266E+02</wgt>
<wgt id='2331'>0.87877E+02</wgt>
<wgt id='2332'>0.87769E+02</wgt>
<wgt id='2333'>0.87839E+02</wgt>
<wgt id='2334'>0.87743E+02</wgt>
<wgt id='2335'>0.87440E+02</wgt>
<wgt id='2336'>0.87689E+02</wgt>
<wgt id='2337'>0.88054E+02</wgt>
<wgt id='2338'>0.87666E+02</wgt>
<wgt id='2339'>0.87473E+02</wgt>
<wgt id='2340'>0.87948E+02</wgt>
<wgt id='2341'>0.88014E+02</wgt>
<wgt id='2342'>0.87964E+02</wgt>
<wgt id='2343'>0.87953E+02</wgt>
<wgt id='2344'>0.87622E+02</wgt>
<wgt id='2345'>0.87470E+02</wgt>
<wgt id='2346'>0.88387E+02</wgt>
<wgt id='2347'>0.88031E+02</wgt>
<wgt id='2348'>0.87417E+02</wgt>
<wgt id='2349'>0.87820E+02</wgt>
<wgt id='2350'>0.87149E+02</wgt>
<wgt id='2351'>0.88090E+02</wgt>
<wgt id='2352'>0.87550E+02</wgt>
<wgt id='2353'>0.87807E+02</wgt>
<wgt id='2354'>0.87972E+02</wgt>
<wgt id='2355'>0.87882E+02</wgt>
<wgt id='2356'>0.87651E+02</wgt>
<wgt id='2357'>0.87972E+02</wgt>
<wgt id='2358'>0.87694E+02</wgt>
<wgt id='2359'>0.87653E+02</wgt>
<wgt id='2360'>0.87938E+02</wgt>
<wgt id='2361'>0.87823E+02</wgt>
<wgt id='2362'>0.87818E+02</wgt>
<wgt id='2363'>0.87632E+02</wgt>
<wgt id='2364'>0.87928E+02</wgt>
<wgt id='2365'>0.87645E+02</wgt>
<wgt id='2366'>0.87839E+02</wgt>
<wgt id='2367'>0.87738E+02</wgt>
<wgt id='2368'>0.87727E+02</wgt>
<wgt id='2369'>0.87631E+02</wgt>
<wgt id='2370'>0.87666E+02</wgt>
<wgt id='2371'>0.87796E+02</wgt>
<wgt id='2372'>0.87858E+02</wgt>
<wgt id='2373'>0.87751E+02</wgt>
<wgt id='2374'>0.88155E+02</wgt>
<wgt id='2375'>0.87831E+02</wgt>
<wgt id='2376'>0.87901E+02</wgt>
<wgt id='2377'>0.87843E+02</wgt>
<wgt id='2378'>0.87885E+02</wgt>
<wgt id='2379'>0.87540E+02</wgt>
<wgt id='2380'>0.87589E+02</wgt>
<wgt id='2381'>0.87720E+02</wgt>
<wgt id='2382'>0.87601E+02</wgt>
<wgt id='2383'>0.87871E+02</wgt>
<wgt id='2384'>0.87815E+02</wgt>
<wgt id='2385'>0.87802E+02</wgt>
<wgt id='2386'>0.87735E+02</wgt>
<wgt id='2387'>0.87703E+02</wgt>
<wgt id='2388'>0.87724E+02</wgt>
<wgt id='2389'>0.87767E+02</wgt>
<wgt id='2390'>0.87670E+02</wgt>
<wgt id='2391'>0.87672E+02</wgt>
<wgt id='2392'>0.87806E+02</wgt>
<wgt id='2393'>0.87863E+02</wgt>
<wgt id='2394'>0.87823E+02</wgt>
<wgt id='2395'>0.87772E+02</wgt>
<wgt id='2396'>0.87743E+02</wgt>
<wgt id='2397'>0.87749E+02</wgt>
<wgt id='2398'>0.87818E+02</wgt>
<wgt id='2399'>0.87830E+02</wgt>
<wgt id='2400'>0.87797E+02</wgt>
<wgt id='2401'>0.85732E+02</wgt>
<wgt id='2402'>0.90339E+02</wgt>
<wgt id='2500'>0.84746E+02</wgt>
<wgt id='2501'>0.90482E+02</wgt>
<wgt id='2600'>0.80106E+02</wgt>
<wgt id='2601'>0.79942E+02</wgt>
<wgt id='2602'>0.80021E+02</wgt>
<wgt id='2603'>0.80073E+02</wgt>
<wgt id='2604'>0.80136E+02</wgt>
<wgt id='2605'>0.79945E+02</wgt>
<wgt id='2606'>0.80139E+02</wgt>
<wgt id='2607'>0.80283E+02</wgt>
<wgt id='2608'>0.80172E+02</wgt>
<wgt id='2609'>0.79991E+02</wgt>
<wgt id='2610'>0.80024E+02</wgt>
<wgt id='2611'>0.80091E+02</wgt>
<wgt id='2612'>0.80201E+02</wgt>
<wgt id='2613'>0.80156E+02</wgt>
<wgt id='2614'>0.80014E+02</wgt>
<wgt id='2615'>0.79985E+02</wgt>
<wgt id='2616'>0.80219E+02</wgt>
<wgt id='2617'>0.79914E+02</wgt>
<wgt id='2618'>0.80270E+02</wgt>
<wgt id='2619'>0.80201E+02</wgt>
<wgt id='2620'>0.79833E+02</wgt>
<wgt id='2621'>0.80243E+02</wgt>
<wgt id='2622'>0.80262E+02</wgt>
<wgt id='2623'>0.80051E+02</wgt>
<wgt id='2624'>0.79964E+02</wgt>
<wgt id='2625'>0.80390E+02</wgt>
<wgt id='2626'>0.80291E+02</wgt>
<wgt id='2627'>0.80232E+02</wgt>
<wgt id='2628'>0.79994E+02</wgt>
<wgt id='2629'>0.80301E+02</wgt>
<wgt id='2630'>0.80429E+02</wgt>
<wgt id='2631'>0.80275E+02</wgt>
<wgt id='2632'>0.79642E+02</wgt>
<wgt id='2633'>0.80096E+02</wgt>
<wgt id='2634'>0.80252E+02</wgt>
<wgt id='2635'>0.79790E+02</wgt>
<wgt id='2636'>0.80158E+02</wgt>
<wgt id='2637'>0.79988E+02</wgt>
<wgt id='2638'>0.80065E+02</wgt>
<wgt id='2639'>0.80088E+02</wgt>
<wgt id='2640'>0.80187E+02</wgt>
<wgt id='2641'>0.79948E+02</wgt>
<wgt id='2642'>0.80102E+02</wgt>
<wgt id='2643'>0.80110E+02</wgt>
<wgt id='2644'>0.80078E+02</wgt>
<wgt id='2645'>0.79993E+02</wgt>
<wgt id='2646'>0.79941E+02</wgt>
<wgt id='2647'>0.80153E+02</wgt>
<wgt id='2648'>0.80148E+02</wgt>
<wgt id='2649'>0.80177E+02</wgt>
<wgt id='2650'>0.80125E+02</wgt>
<wgt id='2651'>0.78391E+02</wgt>
<wgt id='2652'>0.81463E+02</wgt>
<wgt id='2700'>0.76726E+02</wgt>
<wgt id='2701'>0.78391E+02</wgt>
<wgt id='2702'>0.79191E+02</wgt>
<wgt id='2703'>0.80923E+02</wgt>
<wgt id='2704'>0.81463E+02</wgt>
<wgt id='2705'>0.83327E+02</wgt>
<wgt id='2800'>0.83535E+02</wgt>
<wgt id='4000'>0.86898E+02</wgt>
<wgt id='4001'>0.87133E+02</wgt>
<wgt id='4002'>0.87022E+02</wgt>
<wgt id='4003'>0.84957E+02</wgt>
<wgt id='4004'>0.89584E+02</wgt>
<wgt id='4005'>0.87709E+02</wgt>
<wgt id='4006'>0.86373E+02</wgt>
<wgt id='4007'>0.86767E+02</wgt>
<wgt id='4008'>0.87118E+02</wgt>
<wgt id='4009'>0.86279E+02</wgt>
<wgt id='4010'>0.86905E+02</wgt>
<wgt id='4011'>0.87589E+02</wgt>
<wgt id='4012'>0.85892E+02</wgt>
<wgt id='4013'>0.87248E+02</wgt>
<wgt id='4014'>0.86826E+02</wgt>
<wgt id='4015'>0.88338E+02</wgt>
<wgt id='4016'>0.87776E+02</wgt>
<wgt id='4017'>0.87148E+02</wgt>
<wgt id='4018'>0.86678E+02</wgt>
<wgt id='4019'>0.86275E+02</wgt>
<wgt id='4020'>0.88183E+02</wgt>
<wgt id='4021'>0.87462E+02</wgt>
<wgt id='4022'>0.85942E+02</wgt>
<wgt id='4023'>0.87634E+02</wgt>
<wgt id='4024'>0.87439E+02</wgt>
<wgt id='4025'>0.86587E+02</wgt>
<wgt id='4026'>0.87794E+02</wgt>
<wgt id='4027'>0.88699E+02</wgt>
<wgt id='4028'>0.85487E+02</wgt>
<wgt id='4029'>0.88594E+02</wgt>
<wgt id='4030'>0.86442E+02</wgt>
<wgt id='4031'>0.87213E+02</wgt>
<wgt id='4032'>0.89069E+02</wgt>
<wgt id='4033'>0.87976E+02</wgt>
<wgt id='4034'>0.86495E+02</wgt>
<wgt id='4035'>0.86786E+02</wgt>
<wgt id='4036'>0.87048E+02</wgt>
<wgt id='4037'>0.90744E+02</wgt>
<wgt id='4038'>0.83818E+02</wgt>
<wgt id='4039'>0.88822E+02</wgt>
<wgt id='4040'>0.85336E+02</wgt>
<wgt id='4041'>0.87399E+02</wgt>
<wgt id='4042'>0.86430E+02</wgt>
<wgt id='4043'>0.86418E+02</wgt>
<wgt id='4044'>0.86798E+02</wgt>
<wgt id='4045'>0.86265E+02</wgt>
<wgt id='4046'>0.87393E+02</wgt>
<wgt id='4047'>0.87857E+02</wgt>
<wgt id='4048'>0.87246E+02</wgt>
<wgt id='4049'>0.86786E+02</wgt>
<wgt id='4050'>0.87287E+02</wgt>
<wgt id='4051'>0.86135E+02</wgt>
<wgt id='4052'>0.87908E+02</wgt>
<wgt id='4053'>0.87257E+02</wgt>
<wgt id='4054'>0.86065E+02</wgt>
<wgt id='4055'>0.87652E+02</wgt>
<wgt id='4056'>0.86109E+02</wgt>
<wgt id='4057'>0.86056E+02</wgt>
<wgt id='4058'>0.87444E+02</wgt>
<wgt id='4100'>0.86838E+02</wgt>
<wgt id='4101'>0.86806E+02</wgt>
<wgt id='4102'>0.87090E+02</wgt>
<wgt id='4103'>0.87348E+02</wgt>
<wgt id='4200'>0.84279E+02</wgt>
<wgt id='4201'>0.84264E+02</wgt>
<wgt id='4202'>0.84586E+02</wgt>
<wgt id='4203'>0.83968E+02</wgt>
<wgt id='4204'>0.84316E+02</wgt>
<wgt id='4205'>0.84336E+02</wgt>
<wgt id='4206'>0.84459E+02</wgt>
<wgt id='4207'>0.85158E+02</wgt>
<wgt id='4208'>0.83973E+02</wgt>
<wgt id='4209'>0.83825E+02</wgt>
<wgt id='4210'>0.84632E+02</wgt>
<wgt id='4211'>0.84440E+02</wgt>
<wgt id='4212'>0.84184E+02</wgt>
<wgt id='4213'>0.84153E+02</wgt>
<wgt id='4214'>0.84511E+02</wgt>
<wgt id='4215'>0.84547E+02</wgt>
<wgt id='4216'>0.84402E+02</wgt>
<wgt id='4217'>0.84525E+02</wgt>
<wgt id='4218'>0.84017E+02</wgt>
<wgt id='4219'>0.84674E+02</wgt>
<wgt id='4220'>0.84078E+02</wgt>
<wgt id='4221'>0.84397E+02</wgt>
<wgt id='4222'>0.84655E+02</wgt>
<wgt id='4223'>0.82750E+02</wgt>
<wgt id='4224'>0.84097E+02</wgt>
<wgt id='4225'>0.83768E+02</wgt>
<wgt id='4226'>0.85523E+02</wgt>
<wgt id='4227'>0.85274E+02</wgt>
<wgt id='4228'>0.83461E+02</wgt>
<wgt id='4229'>0.82861E+02</wgt>
<wgt id='4230'>0.85726E+02</wgt>
<wgt id='4231'>0.85259E+02</wgt>
<wgt id='4232'>0.82846E+02</wgt>
<wgt id='4233'>0.84979E+02</wgt>
<wgt id='4234'>0.82820E+02</wgt>
<wgt id='4235'>0.85876E+02</wgt>
<wgt id='4236'>0.82723E+02</wgt>
<wgt id='4237'>0.86323E+02</wgt>
<wgt id='4238'>0.81350E+02</wgt>
<wgt id='4239'>0.84492E+02</wgt>
<wgt id='4240'>0.84583E+02</wgt>
<wgt id='4241'>0.84631E+02</wgt>
<wgt id='4242'>0.83935E+02</wgt>
<wgt id='4243'>0.85119E+02</wgt>
<wgt id='4244'>0.83532E+02</wgt>
<wgt id='4245'>0.84717E+02</wgt>
<wgt id='4246'>0.83195E+02</wgt>
<wgt id='4247'>0.82959E+02</wgt>
<wgt id='4248'>0.85131E+02</wgt>
<wgt id='4249'>0.85293E+02</wgt>
<wgt id='4250'>0.83142E+02</wgt>
<wgt id='4251'>0.87038E+02</wgt>
<wgt id='4252'>0.82601E+02</wgt>
<wgt id='4253'>0.86230E+02</wgt>
<wgt id='4254'>0.82048E+02</wgt>
<wgt id='4255'>0.86304E+02</wgt>
<wgt id='4256'>0.83538E+02</wgt>
<wgt id='4257'>0.82738E+02</wgt>
<wgt id='4258'>0.84721E+02</wgt>
<wgt id='4300'>0.85614E+02</wgt>
<wgt id='4301'>0.86717E+02</wgt>
<wgt id='5000'>0.84309E+02</wgt>
<wgt id='5001'>0.84353E+02</wgt>
<wgt id='5002'>0.84254E+02</wgt>
<wgt id='5003'>0.84332E+02</wgt>
<wgt id='5004'>0.84289E+02</wgt>
<wgt id='5005'>0.84309E+02</wgt>
<wgt id='5006'>0.84309E+02</wgt>
<wgt id='5007'>0.84406E+02</wgt>
<wgt id='5008'>0.84230E+02</wgt>
<wgt id='5009'>0.84417E+02</wgt>
<wgt id='5010'>0.84198E+02</wgt>
<wgt id='5011'>0.84615E+02</wgt>
<wgt id='5012'>0.84015E+02</wgt>
<wgt id='5013'>0.84480E+02</wgt>
<wgt id='5014'>0.84188E+02</wgt>
<wgt id='5015'>0.83879E+02</wgt>
<wgt id='5016'>0.83879E+02</wgt>
<wgt id='5017'>0.84600E+02</wgt>
<wgt id='5018'>0.84114E+02</wgt>
<wgt id='5019'>0.84597E+02</wgt>
<wgt id='5020'>0.83914E+02</wgt>
<wgt id='5021'>0.84390E+02</wgt>
<wgt id='5022'>0.84182E+02</wgt>
<wgt id='5023'>0.84284E+02</wgt>
<wgt id='5024'>0.84370E+02</wgt>
<wgt id='5025'>0.84181E+02</wgt>
<wgt id='5026'>0.84448E+02</wgt>
<wgt id='5027'>0.84392E+02</wgt>
<wgt id='5028'>0.84087E+02</wgt>
<wgt id='5029'>0.85665E+02</wgt>
<wgt id='5030'>0.83551E+02</wgt>
<wgt id='5031'>0.83497E+02</wgt>
<wgt id='5032'>0.86821E+02</wgt>
<wgt id='5033'>0.84167E+02</wgt>
<wgt id='5034'>0.84462E+02</wgt>
<wgt id='5035'>0.84330E+02</wgt>
<wgt id='5036'>0.84283E+02</wgt>
<wgt id='5037'>0.83907E+02</wgt>
<wgt id='5038'>0.84536E+02</wgt>
<wgt id='5039'>0.84493E+02</wgt>
<wgt id='5040'>0.83852E+02</wgt>
<wgt id='5041'>0.83695E+02</wgt>
<wgt id='5042'>0.84995E+02</wgt>
<wgt id='5043'>0.84553E+02</wgt>
<wgt id='5044'>0.84120E+02</wgt>
<wgt id='5045'>0.85064E+02</wgt>
<wgt id='5046'>0.82885E+02</wgt>
<wgt id='5047'>0.84474E+02</wgt>
<wgt id='5048'>0.83589E+02</wgt>
<wgt id='5049'>0.84135E+02</wgt>
<wgt id='5050'>0.84702E+02</wgt>
<wgt id='5051'>0.84674E+02</wgt>
<wgt id='5052'>0.84066E+02</wgt>
<wgt id='5053'>0.84857E+02</wgt>
<wgt id='5054'>0.84376E+02</wgt>
<wgt id='5055'>0.84326E+02</wgt>
<wgt id='5056'>0.84431E+02</wgt>
<wgt id='5057'>0.83805E+02</wgt>
<wgt id='5058'>0.84664E+02</wgt>
<wgt id='5059'>0.84027E+02</wgt>
<wgt id='5060'>0.84465E+02</wgt>
<wgt id='5061'>0.84493E+02</wgt>
<wgt id='5062'>0.84749E+02</wgt>
<wgt id='5063'>0.84504E+02</wgt>
<wgt id='5064'>0.84594E+02</wgt>
<wgt id='5100'>0.84309E+02</wgt>
<wgt id='5101'>0.84305E+02</wgt>
<wgt id='6000'>0.84447E+02</wgt>
<wgt id='6001'>0.84031E+02</wgt>
<wgt id='6002'>0.83153E+02</wgt>
<wgt id='6003'>0.84115E+02</wgt>
<wgt id='6004'>0.85254E+02</wgt>
<wgt id='6005'>0.83739E+02</wgt>
<wgt id='6006'>0.84604E+02</wgt>
<wgt id='6007'>0.83512E+02</wgt>
<wgt id='6008'>0.84807E+02</wgt>
<wgt id='6009'>0.84459E+02</wgt>
<wgt id='6010'>0.85107E+02</wgt>
<wgt id='6011'>0.84371E+02</wgt>
<wgt id='6012'>0.84710E+02</wgt>
<wgt id='6013'>0.84015E+02</wgt>
<wgt id='6014'>0.83879E+02</wgt>
<wgt id='6015'>0.83401E+02</wgt>
<wgt id='6016'>0.85062E+02</wgt>
<wgt id='6017'>0.84033E+02</wgt>
<wgt id='6018'>0.83532E+02</wgt>
<wgt id='6019'>0.84926E+02</wgt>
<wgt id='6020'>0.84606E+02</wgt>
<wgt id='6021'>0.84433E+02</wgt>
<wgt id='6022'>0.85214E+02</wgt>
<wgt id='6023'>0.84442E+02</wgt>
<wgt id='6024'>0.84676E+02</wgt>
<wgt id='6025'>0.85005E+02</wgt>
<wgt id='6026'>0.84348E+02</wgt>
<wgt id='6027'>0.84625E+02</wgt>
<wgt id='6028'>0.83624E+02</wgt>
<wgt id='6029'>0.84076E+02</wgt>
<wgt id='6030'>0.83942E+02</wgt>
<wgt id='6031'>0.84115E+02</wgt>
<wgt id='6032'>0.84430E+02</wgt>
<wgt id='6033'>0.84389E+02</wgt>
<wgt id='6034'>0.85033E+02</wgt>
<wgt id='6035'>0.84535E+02</wgt>
<wgt id='6036'>0.85154E+02</wgt>
<wgt id='6037'>0.84412E+02</wgt>
<wgt id='6038'>0.84249E+02</wgt>
<wgt id='6039'>0.84925E+02</wgt>
<wgt id='6040'>0.84557E+02</wgt>
<wgt id='6041'>0.82956E+02</wgt>
<wgt id='6042'>0.86093E+02</wgt>
<wgt id='7000'>0.77896E+02</wgt>
<wgt id='7001'>0.77432E+02</wgt>
<wgt id='7002'>0.77601E+02</wgt>
<wgt id='7003'>0.77483E+02</wgt>
<wgt id='7004'>0.77551E+02</wgt>
<wgt id='7005'>0.77535E+02</wgt>
<wgt id='7006'>0.77499E+02</wgt>
<wgt id='7007'>0.77965E+02</wgt>
<wgt id='7008'>0.77081E+02</wgt>
<wgt id='7009'>0.77113E+02</wgt>
<wgt id='7010'>0.77935E+02</wgt>
<wgt id='7011'>0.77782E+02</wgt>
<wgt id='7012'>0.77262E+02</wgt>
<wgt id='7013'>0.77557E+02</wgt>
<wgt id='7014'>0.77471E+02</wgt>
<wgt id='7015'>0.77746E+02</wgt>
<wgt id='7016'>0.77110E+02</wgt>
<wgt id='7017'>0.77283E+02</wgt>
<wgt id='7018'>0.77770E+02</wgt>
<wgt id='7019'>0.78157E+02</wgt>
<wgt id='7020'>0.76907E+02</wgt>
<wgt id='7021'>0.79300E+02</wgt>
<wgt id='7022'>0.75878E+02</wgt>
<wgt id='7023'>0.76054E+02</wgt>
<wgt id='7024'>0.79004E+02</wgt>
<wgt id='7025'>0.75663E+02</wgt>
<wgt id='7026'>0.79361E+02</wgt>
<wgt id='7027'>0.76672E+02</wgt>
<wgt id='7028'>0.78444E+02</wgt>
<wgt id='8000'>0.80087E+02</wgt>
<wgt id='8001'>0.80081E+02</wgt>
<wgt id='8002'>0.80111E+02</wgt>
<wgt id='8003'>0.80085E+02</wgt>
<wgt id='8004'>0.80085E+02</wgt>
<wgt id='8005'>0.79942E+02</wgt>
<wgt id='8006'>0.80218E+02</wgt>
<wgt id='8007'>0.80312E+02</wgt>
<wgt id='8008'>0.80252E+02</wgt>
<wgt id='8009'>0.80415E+02</wgt>
<wgt id='8010'>0.79973E+02</wgt>
<wgt id='8011'>0.80148E+02</wgt>
<wgt id='8012'>0.79772E+02</wgt>
<wgt id='8013'>0.79890E+02</wgt>
<wgt id='8014'>0.80342E+02</wgt>
<wgt id='8015'>0.80033E+02</wgt>
<wgt id='8016'>0.80253E+02</wgt>
<wgt id='8017'>0.80260E+02</wgt>
<wgt id='8018'>0.80499E+02</wgt>
<wgt id='8019'>0.79755E+02</wgt>
<wgt id='8020'>0.80676E+02</wgt>
<wgt id='8021'>0.79849E+02</wgt>
<wgt id='8022'>0.81146E+02</wgt>
<wgt id='8023'>0.79611E+02</wgt>
<wgt id='8024'>0.79192E+02</wgt>
<wgt id='8025'>0.79309E+02</wgt>
<wgt id='8026'>0.79992E+02</wgt>
<wgt id='8027'>0.80351E+02</wgt>
<wgt id='8028'>0.80078E+02</wgt>
<wgt id='8029'>0.83140E+02</wgt>
<wgt id='3000'>0.81104E+02</wgt>
<wgt id='3001'>0.84228E+02</wgt>
<wgt id='3002'>0.79149E+02</wgt>
<wgt id='3003'>0.78392E+02</wgt>
<wgt id='3004'>0.81741E+02</wgt>
<wgt id='3005'>0.80920E+02</wgt>
<wgt id='3006'>0.82906E+02</wgt>
<wgt id='3007'>0.78504E+02</wgt>
<wgt id='3008'>0.77675E+02</wgt>
<wgt id='3009'>0.80131E+02</wgt>
<wgt id='3010'>0.87249E+02</wgt>
<wgt id='3011'>0.83068E+02</wgt>
<wgt id='3012'>0.80708E+02</wgt>
<wgt id='3013'>0.82492E+02</wgt>
<wgt id='3014'>0.80778E+02</wgt>
<wgt id='3015'>0.81824E+02</wgt>
<wgt id='3016'>0.81166E+02</wgt>
<wgt id='3017'>0.81119E+02</wgt>
<wgt id='3018'>0.78234E+02</wgt>
<wgt id='3019'>0.79657E+02</wgt>
<wgt id='3020'>0.80843E+02</wgt>
<wgt id='3021'>0.81195E+02</wgt>
<wgt id='3022'>0.79274E+02</wgt>
<wgt id='3023'>0.78829E+02</wgt>
<wgt id='3024'>0.80585E+02</wgt>
<wgt id='3025'>0.78320E+02</wgt>
<wgt id='3026'>0.80657E+02</wgt>
<wgt id='3027'>0.83913E+02</wgt>
<wgt id='3028'>0.77746E+02</wgt>
<wgt id='3029'>0.82143E+02</wgt>
<wgt id='3030'>0.81883E+02</wgt>
<wgt id='3031'>0.79173E+02</wgt>
<wgt id='3032'>0.84517E+02</wgt>
<wgt id='3033'>0.79637E+02</wgt>
<wgt id='3034'>0.80492E+02</wgt>
<wgt id='3035'>0.82629E+02</wgt>
<wgt id='3036'>0.82266E+02</wgt>
<wgt id='3037'>0.80346E+02</wgt>
<wgt id='3038'>0.80845E+02</wgt>
<wgt id='3039'>0.83458E+02</wgt>
<wgt id='3040'>0.79600E+02</wgt>
<wgt id='3041'>0.80475E+02</wgt>
<wgt id='3042'>0.79971E+02</wgt>
<wgt id='3043'>0.82138E+02</wgt>
<wgt id='3044'>0.81633E+02</wgt>
<wgt id='3045'>0.80271E+02</wgt>
<wgt id='3046'>0.81675E+02</wgt>
<wgt id='3047'>0.81562E+02</wgt>
<wgt id='3048'>0.81752E+02</wgt>
<wgt id='3049'>0.84473E+02</wgt>
<wgt id='3050'>0.83156E+02</wgt>
<wgt id='3051'>0.82617E+02</wgt>
<wgt id='3052'>0.79549E+02</wgt>
<wgt id='3053'>0.82755E+02</wgt>
<wgt id='3054'>0.80529E+02</wgt>
<wgt id='3055'>0.79504E+02</wgt>
<wgt id='3056'>0.80413E+02</wgt>
<wgt id='3057'>0.80450E+02</wgt>
<wgt id='3058'>0.82564E+02</wgt>
<wgt id='3059'>0.78670E+02</wgt>
<wgt id='3060'>0.81602E+02</wgt>
<wgt id='3061'>0.82891E+02</wgt>
<wgt id='3062'>0.80348E+02</wgt>
<wgt id='3063'>0.81534E+02</wgt>
<wgt id='3064'>0.81834E+02</wgt>
<wgt id='3065'>0.79618E+02</wgt>
<wgt id='3066'>0.79317E+02</wgt>
<wgt id='3067'>0.78432E+02</wgt>
<wgt id='3068'>0.81107E+02</wgt>
<wgt id='3069'>0.81003E+02</wgt>
<wgt id='3070'>0.82990E+02</wgt>
<wgt id='3071'>0.82544E+02</wgt>
<wgt id='3072'>0.83082E+02</wgt>
<wgt id='3073'>0.80210E+02</wgt>
<wgt id='3074'>0.80390E+02</wgt>
<wgt id='3075'>0.81081E+02</wgt>
<wgt id='3076'>0.83166E+02</wgt>
<wgt id='3077'>0.81483E+02</wgt>
<wgt id='3078'>0.82144E+02</wgt>
<wgt id='3079'>0.81943E+02</wgt>
<wgt id='3080'>0.84448E+02</wgt>
<wgt id='3081'>0.81240E+02</wgt>
<wgt id='3082'>0.81166E+02</wgt>
<wgt id='3083'>0.81514E+02</wgt>
<wgt id='3084'>0.79220E+02</wgt>
<wgt id='3085'>0.80965E+02</wgt>
<wgt id='3086'>0.82857E+02</wgt>
<wgt id='3087'>0.79984E+02</wgt>
<wgt id='3088'>0.81605E+02</wgt>
<wgt id='3089'>0.79902E+02</wgt>
<wgt id='3090'>0.78889E+02</wgt>
<wgt id='3091'>0.77634E+02</wgt>
<wgt id='3092'>0.83929E+02</wgt>
<wgt id='3093'>0.81187E+02</wgt>
<wgt id='3094'>0.81148E+02</wgt>
<wgt id='3095'>0.81442E+02</wgt>
<wgt id='3096'>0.79659E+02</wgt>
<wgt id='3097'>0.85769E+02</wgt>
<wgt id='3098'>0.80482E+02</wgt>
<wgt id='3099'>0.78346E+02</wgt>
<wgt id='3100'>0.79252E+02</wgt>
<wgt id='3200'>0.80315E+02</wgt>
<wgt id='3201'>0.80110E+02</wgt>
<wgt id='3202'>0.79528E+02</wgt>
<wgt id='3203'>0.81375E+02</wgt>
<wgt id='3204'>0.81279E+02</wgt>
<wgt id='3205'>0.81092E+02</wgt>
<wgt id='3206'>0.80334E+02</wgt>
<wgt id='3207'>0.79972E+02</wgt>
<wgt id='3208'>0.80437E+02</wgt>
<wgt id='3209'>0.80554E+02</wgt>
<wgt id='3210'>0.80073E+02</wgt>
<wgt id='3211'>0.79539E+02</wgt>
<wgt id='3212'>0.80154E+02</wgt>
<wgt id='3213'>0.80714E+02</wgt>
<wgt id='3214'>0.79607E+02</wgt>
<wgt id='3215'>0.79444E+02</wgt>
<wgt id='3216'>0.81610E+02</wgt>
<wgt id='3217'>0.80179E+02</wgt>
<wgt id='3218'>0.80890E+02</wgt>
<wgt id='3219'>0.79078E+02</wgt>
<wgt id='3220'>0.79845E+02</wgt>
<wgt id='3221'>0.80107E+02</wgt>
<wgt id='3222'>0.81102E+02</wgt>
<wgt id='3223'>0.79594E+02</wgt>
<wgt id='3224'>0.79775E+02</wgt>
<wgt id='3225'>0.80521E+02</wgt>
<wgt id='3226'>0.80872E+02</wgt>
<wgt id='3227'>0.80377E+02</wgt>
<wgt id='3228'>0.80243E+02</wgt>
<wgt id='3229'>0.81311E+02</wgt>
<wgt id='3230'>0.81157E+02</wgt>
<wgt id='3231'>0.80379E+02</wgt>
<wgt id='3232'>0.80784E+02</wgt>
<wgt id='3233'>0.80035E+02</wgt>
<wgt id='3234'>0.78691E+02</wgt>
<wgt id='3235'>0.79809E+02</wgt>
<wgt id='3236'>0.81563E+02</wgt>
<wgt id='3237'>0.80255E+02</wgt>
<wgt id='3238'>0.82002E+02</wgt>
<wgt id='3239'>0.78608E+02</wgt>
<wgt id='3240'>0.78337E+02</wgt>
<wgt id='3241'>0.80783E+02</wgt>
<wgt id='3242'>0.81465E+02</wgt>
<wgt id='3243'>0.81654E+02</wgt>
<wgt id='3244'>0.81318E+02</wgt>
<wgt id='3245'>0.81864E+02</wgt>
<wgt id='3246'>0.79362E+02</wgt>
<wgt id='3247'>0.78162E+02</wgt>
<wgt id='3248'>0.79799E+02</wgt>
<wgt id='3249'>0.80242E+02</wgt>
<wgt id='3250'>0.78869E+02</wgt>
<wgt id='3251'>0.79847E+02</wgt>
<wgt id='3252'>0.81973E+02</wgt>
<wgt id='3253'>0.82455E+02</wgt>
<wgt id='3254'>0.80019E+02</wgt>
<wgt id='3255'>0.78737E+02</wgt>
<wgt id='3256'>0.79252E+02</wgt>
<wgt id='3257'>0.79119E+02</wgt>
<wgt id='3258'>0.79219E+02</wgt>
<wgt id='3259'>0.79474E+02</wgt>
<wgt id='3260'>0.81351E+02</wgt>
<wgt id='3261'>0.79904E+02</wgt>
<wgt id='3262'>0.81396E+02</wgt>
<wgt id='3263'>0.79725E+02</wgt>
<wgt id='3264'>0.82176E+02</wgt>
<wgt id='3265'>0.81602E+02</wgt>
<wgt id='3266'>0.80255E+02</wgt>
<wgt id='3267'>0.80638E+02</wgt>
<wgt id='3268'>0.78204E+02</wgt>
<wgt id='3269'>0.79323E+02</wgt>
<wgt id='3270'>0.81750E+02</wgt>
<wgt id='3271'>0.79399E+02</wgt>
<wgt id='3272'>0.80594E+02</wgt>
<wgt id='3273'>0.80421E+02</wgt>
<wgt id='3274'>0.81660E+02</wgt>
<wgt id='3275'>0.81482E+02</wgt>
<wgt id='3276'>0.79162E+02</wgt>
<wgt id='3277'>0.80005E+02</wgt>
<wgt id='3278'>0.81433E+02</wgt>
<wgt id='3279'>0.80829E+02</wgt>
<wgt id='3280'>0.79758E+02</wgt>
<wgt id='3281'>0.81617E+02</wgt>
<wgt id='3282'>0.79733E+02</wgt>
<wgt id='3283'>0.81471E+02</wgt>
<wgt id='3284'>0.78786E+02</wgt>
<wgt id='3285'>0.80604E+02</wgt>
<wgt id='3286'>0.79289E+02</wgt>
<wgt id='3287'>0.81946E+02</wgt>
<wgt id='3288'>0.78821E+02</wgt>
<wgt id='3289'>0.80933E+02</wgt>
<wgt id='3290'>0.79756E+02</wgt>
<wgt id='3291'>0.80269E+02</wgt>
<wgt id='3292'>0.79483E+02</wgt>
<wgt id='3293'>0.80293E+02</wgt>
<wgt id='3294'>0.80653E+02</wgt>
<wgt id='3295'>0.79192E+02</wgt>
<wgt id='3296'>0.81177E+02</wgt>
<wgt id='3297'>0.80744E+02</wgt>
<wgt id='3298'>0.78658E+02</wgt>
<wgt id='3299'>0.80707E+02</wgt>
<wgt id='3300'>0.81193E+02</wgt>
<wgt id='3301'>0.78391E+02</wgt>
<wgt id='3302'>0.81463E+02</wgt>
<wgt id='3400'>0.80003E+02</wgt>
<wgt id='3401'>0.81701E+02</wgt>
<wgt id='3402'>0.78018E+02</wgt>
<wgt id='3403'>0.81001E+02</wgt>
<wgt id='3404'>0.81223E+02</wgt>
<wgt id='3405'>0.81745E+02</wgt>
<wgt id='3406'>0.79928E+02</wgt>
<wgt id='3407'>0.79044E+02</wgt>
<wgt id='3408'>0.80220E+02</wgt>
<wgt id='3409'>0.78962E+02</wgt>
<wgt id='3410'>0.80870E+02</wgt>
<wgt id='3411'>0.80548E+02</wgt>
<wgt id='3412'>0.80113E+02</wgt>
<wgt id='3413'>0.79754E+02</wgt>
<wgt id='3414'>0.80548E+02</wgt>
<wgt id='3415'>0.80424E+02</wgt>
<wgt id='3416'>0.79920E+02</wgt>
<wgt id='3417'>0.80397E+02</wgt>
<wgt id='3418'>0.79678E+02</wgt>
<wgt id='3419'>0.79839E+02</wgt>
<wgt id='3420'>0.79539E+02</wgt>
<wgt id='3421'>0.79376E+02</wgt>
<wgt id='3422'>0.78969E+02</wgt>
<wgt id='3423'>0.83449E+02</wgt>
<wgt id='3424'>0.80226E+02</wgt>
<wgt id='3425'>0.79310E+02</wgt>
<wgt id='3426'>0.79643E+02</wgt>
<wgt id='3427'>0.79745E+02</wgt>
<wgt id='3428'>0.79124E+02</wgt>
<wgt id='3429'>0.78361E+02</wgt>
<wgt id='3430'>0.80152E+02</wgt>
<wgt id='3431'>0.80686E+02</wgt>
<wgt id='3432'>0.80272E+02</wgt>
<wgt id='3433'>0.80131E+02</wgt>
<wgt id='3434'>0.82383E+02</wgt>
<wgt id='3435'>0.81485E+02</wgt>
<wgt id='3436'>0.80445E+02</wgt>
<wgt id='3437'>0.81468E+02</wgt>
<wgt id='3438'>0.79174E+02</wgt>
<wgt id='3439'>0.78750E+02</wgt>
<wgt id='3440'>0.80337E+02</wgt>
<wgt id='3441'>0.81047E+02</wgt>
<wgt id='3442'>0.80759E+02</wgt>
<wgt id='3443'>0.81424E+02</wgt>
<wgt id='3444'>0.79926E+02</wgt>
<wgt id='3445'>0.78998E+02</wgt>
<wgt id='3446'>0.80572E+02</wgt>
<wgt id='3447'>0.79768E+02</wgt>
<wgt id='3448'>0.80211E+02</wgt>
<wgt id='3449'>0.79786E+02</wgt>
<wgt id='3450'>0.79129E+02</wgt>
<wgt id='3451'>0.80392E+02</wgt>
<wgt id='3452'>0.79122E+02</wgt>
<wgt id='3453'>0.78299E+02</wgt>
<wgt id='3454'>0.79584E+02</wgt>
<wgt id='3455'>0.80657E+02</wgt>
<wgt id='3456'>0.80194E+02</wgt>
<wgt id='3457'>0.79498E+02</wgt>
<wgt id='3458'>0.78742E+02</wgt>
<wgt id='3459'>0.80918E+02</wgt>
<wgt id='3460'>0.79972E+02</wgt>
<wgt id='3461'>0.79747E+02</wgt>
<wgt id='3462'>0.79556E+02</wgt>
<wgt id='3463'>0.79314E+02</wgt>
<wgt id='3464'>0.79736E+02</wgt>
<wgt id='3465'>0.78768E+02</wgt>
<wgt id='3466'>0.81357E+02</wgt>
<wgt id='3467'>0.79589E+02</wgt>
<wgt id='3468'>0.79294E+02</wgt>
<wgt id='3469'>0.77937E+02</wgt>
<wgt id='3470'>0.79934E+02</wgt>
<wgt id='3471'>0.78905E+02</wgt>
<wgt id='3472'>0.78396E+02</wgt>
<wgt id='3473'>0.81816E+02</wgt>
<wgt id='3474'>0.79742E+02</wgt>
<wgt id='3475'>0.79782E+02</wgt>
<wgt id='3476'>0.80389E+02</wgt>
<wgt id='3477'>0.79045E+02</wgt>
<wgt id='3478'>0.80342E+02</wgt>
<wgt id='3479'>0.79108E+02</wgt>
<wgt id='3480'>0.79905E+02</wgt>
<wgt id='3481'>0.81384E+02</wgt>
<wgt id='3482'>0.80066E+02</wgt>
<wgt id='3483'>0.79878E+02</wgt>
<wgt id='3484'>0.79724E+02</wgt>
<wgt id='3485'>0.78904E+02</wgt>
<wgt id='3486'>0.78302E+02</wgt>
<wgt id='3487'>0.78978E+02</wgt>
<wgt id='3488'>0.79935E+02</wgt>
<wgt id='3489'>0.79047E+02</wgt>
<wgt id='3490'>0.81195E+02</wgt>
<wgt id='3491'>0.81295E+02</wgt>
<wgt id='3492'>0.80071E+02</wgt>
<wgt id='3493'>0.81332E+02</wgt>
<wgt id='3494'>0.78113E+02</wgt>
<wgt id='3495'>0.81509E+02</wgt>
<wgt id='3496'>0.78205E+02</wgt>
<wgt id='3497'>0.79618E+02</wgt>
<wgt id='3498'>0.80613E+02</wgt>
<wgt id='3499'>0.81351E+02</wgt>
<wgt id='3500'>0.81946E+02</wgt>
</rwgt>
</event>
<event>
     13 322200  8.11039E+01  4.34133E+00 -1.00000E+00  2.48390E-01
       2    -1     0     0   502     0  0.000000000E+00  0.000000000E+00  1.467105289E+03  1.467105289E+03  0.000000000E+00  0.00000E+00  9.000E+00
      -2    -1     0     0     0   512  0.000000000E+00  0.000000000E+00 -2.659447634E+01  2.659447634E+01  0.000000000E+00  0.00000E+00  9.000E+00
       6     2     1     2   502     0  7.409621594E+01  1.123259539E+01  5.955141341E+02  6.245398938E+02  1.726168433E+02  0.00000E+00  9.000E+00
      -6     2     1     2     0   513 -7.452211643E+01 -1.555298464E+01  8.438938658E+02  8.646806584E+02  1.723958906E+02  0.00000E+00  9.000E+00
      21     1     1     2   513   512  4.259004979E-01  4.320389246E+00  1.102812734E+00  4.479213145E+00  2.308477966E-07  0.00000E+00  9.000E+00
      24     2     3     3     0     0  1.847611211E+01 -5.402803670E+01  3.848935151E+02  3.970773809E+02  7.916459386E+01  0.00000E+00  9.000E+00
       5     1     3     3   502     0  5.562010383E+01  6.526063209E+01  2.106206189E+02  2.274625129E+02  5.060000000E+00  0.00000E+00 -1.000E+00
     -24     2     4     4     0     0 -3.729125469E+01  7.441696420E-01  1.801186273E+02  1.996431368E+02  7.761102176E+01  0.00000E+00  9.000E+00
      -5     1     4     4     0   513 -3.723086174E+01 -1.629715428E+01  6.637752385E+02  6.650375216E+02  5.060000000E+00  0.00000E+00  1.000E+00
     -15     1     6     6     0     0 -1.955437193E+01 -4.987369220E+01  1.546000171E+02  1.636278755E+02  1.777000000E+00  0.00000E+00  1.000E+00
      16     1     6     6     0     0  3.803048404E+01 -4.154344500E+00  2.302934981E+02  2.334495053E+02  0.000000000E+00  0.00000E+00 -1.000E+00
      15     1     8     8     0     0 -4.156258148E+01 -1.714758419E+00  3.486452770E+01  5.430544721E+01  1.777000000E+00  0.00000E+00 -1.000E+00
     -16     1     8     8     0     0  4.271326792E+00  2.458928061E+00  1.452540996E+02  1.453376896E+02  0.000000000E+00  0.00000E+00  1.000E+00
#rwgt            1           8   178.93485555860985               10       16613           0
<rwgt>
<wgt id='1001'>0.81104E+02</wgt>
<wgt id='1002'>0.75303E+02</wgt>
<wgt id='1003'>0.86163E+02</wgt>
<wgt id='1004'>0.79709E+02</wgt>
<wgt id='1005'>0.75439E+02</wgt>
<wgt id='1006'>0.83289E+02</wgt>
<wgt id='1007'>0.78016E+02</wgt>
<wgt id='1008'>0.69931E+02</wgt>
<wgt id='1009'>0.85320E+02</wgt>
<wgt id='2000'>0.81104E+02</wgt>
<wgt id='2001'>0.81080E+02</wgt>
<wgt id='2002'>0.81061E+02</wgt>
<wgt id='2003'>0.81123E+02</wgt>
<wgt id='2004'>0.81095E+02</wgt>
<wgt id='2005'>0.81306E+02</wgt>
<wgt id='2006'>0.80987E+02</wgt>
<wgt id='2007'>0.81210E+02</wgt>
<wgt id='2008'>0.80943E+02</wgt>
<wgt id='2009'>0.81391E+02</wgt>
<wgt id='2010'>0.80890E+02</wgt>
<wgt id='2011'>0.81131E+02</wgt>
<wgt id='2012'>0.80964E+02</wgt>
<wgt id='2013'>0.81148E+02</wgt>
<wgt id='2014'>0.81217E+02</wgt>
<wgt id='2015'>0.81205E+02</wgt>
<wgt id='2016'>0.81008E+02</wgt>
<wgt id='2017'>0.81125E+02</wgt>
<wgt id='2018'>0.80750E+02</wgt>
<wgt id='2019'>0.80933E+02</wgt>
<wgt id='2020'>0.80771E+02</wgt>
<wgt id='2021'>0.81017E+02</wgt>
<wgt id='2022'>0.81416E+02</wgt>
<wgt id='2023'>0.80847E+02</wgt>
<wgt id='2024'>0.81002E+02</wgt>
<wgt id='2025'>0.81029E+02</wgt>
<wgt id='2026'>0.81090E+02</wgt>
<wgt id='2027'>0.80954E+02</wgt>
<wgt id='2028'>0.81320E+02</wgt>
<wgt id='2029'>0.81668E+02</wgt>
<wgt id='2030'>0.81258E+02</wgt>
<wgt id='2031'>0.81822E+02</wgt>
<wgt id='2032'>0.81261E+02</wgt>
<wgt id='2033'>0.81164E+02</wgt>
<wgt id='2034'>0.81240E+02</wgt>
<wgt id='2035'>0.80984E+02</wgt>
<wgt id='2036'>0.80883E+02</wgt>
<wgt id='2037'>0.81639E+02</wgt>
<wgt id='2038'>0.81162E+02</wgt>
<wgt id='2039'>0.81145E+02</wgt>
<wgt id='2040'>0.81476E+02</wgt>
<wgt id='2041'>0.81272E+02</wgt>
<wgt id='2042'>0.81198E+02</wgt>
<wgt id='2043'>0.80986E+02</wgt>
<wgt id='2044'>0.80894E+02</wgt>
<wgt id='2045'>0.81135E+02</wgt>
<wgt id='2046'>0.80994E+02</wgt>
<wgt id='2047'>0.80996E+02</wgt>
<wgt id='2048'>0.80961E+02</wgt>
<wgt id='2049'>0.81083E+02</wgt>
<wgt id='2050'>0.81061E+02</wgt>
<wgt id='2051'>0.81026E+02</wgt>
<wgt id='2052'>0.81189E+02</wgt>
<wgt id='2053'>0.80968E+02</wgt>
<wgt id='2054'>0.81117E+02</wgt>
<wgt id='2055'>0.81177E+02</wgt>
<wgt id='2056'>0.81270E+02</wgt>
<wgt id='2057'>0.81203E+02</wgt>
<wgt id='2058'>0.81086E+02</wgt>
<wgt id='2059'>0.81167E+02</wgt>
<wgt id='2060'>0.81079E+02</wgt>
<wgt id='2061'>0.81092E+02</wgt>
<wgt id='2062'>0.81101E+02</wgt>
<wgt id='2063'>0.81170E+02</wgt>
<wgt id='2064'>0.81107E+02</wgt>
<wgt id='2065'>0.81060E+02</wgt>
<wgt id='2066'>0.80933E+02</wgt>
<wgt id='2067'>0.81194E+02</wgt>
<wgt id='2068'>0.81065E+02</wgt>
<wgt id='2069'>0.81131E+02</wgt>
<wgt id='2070'>0.81109E+02</wgt>
<wgt id='2071'>0.81167E+02</wgt>
<wgt id='2072'>0.81092E+02</wgt>
<wgt id='2073'>0.81243E+02</wgt>
<wgt id='2074'>0.81135E+02</wgt>
<wgt id='2075'>0.81124E+02</wgt>
<wgt id='2076'>0.81084E+02</wgt>
<wgt id='2077'>0.81058E+02</wgt>
<wgt id='2078'>0.81092E+02</wgt>
<wgt id='2079'>0.81149E+02</wgt>
<wgt id='2080'>0.81106E+02</wgt>
<wgt id='2081'>0.81138E+02</wgt>
<wgt id='2082'>0.81127E+02</wgt>
<wgt id='2083'>0.81142E+02</wgt>
<wgt id='2084'>0.81088E+02</wgt>
<wgt id='2085'>0.81098E+02</wgt>
<wgt id='2086'>0.81103E+02</wgt>
<wgt id='2087'>0.81145E+02</wgt>
<wgt id='2088'>0.81129E+02</wgt>
<wgt id='2089'>0.81130E+02</wgt>
<wgt id='2090'>0.81138E+02</wgt>
<wgt id='2091'>0.81101E+02</wgt>
<wgt id='2092'>0.81167E+02</wgt>
<wgt id='2093'>0.81107E+02</wgt>
<wgt id='2094'>0.81129E+02</wgt>
<wgt id='2095'>0.81137E+02</wgt>
<wgt id='2096'>0.81097E+02</wgt>
<wgt id='2097'>0.81073E+02</wgt>
<wgt id='2098'>0.81090E+02</wgt>
<wgt id='2099'>0.81161E+02</wgt>
<wgt id='2100'>0.81104E+02</wgt>
<wgt id='2101'>0.78475E+02</wgt>
<wgt id='2102'>0.83951E+02</wgt>
<wgt id='2200'>0.81200E+02</wgt>
<wgt id='2201'>0.68420E+02</wgt>
<wgt id='2202'>0.70705E+02</wgt>
<wgt id='2203'>0.73569E+02</wgt>
<wgt id='2204'>0.76209E+02</wgt>
<wgt id='2205'>0.80090E+02</wgt>
<wgt id='2206'>0.82482E+02</wgt>
<wgt id='2207'>0.86430E+02</wgt>
<wgt id='2208'>0.89026E+02</wgt>
<wgt id='2300'>0.81084E+02</wgt>
<wgt id='2301'>0.81160E+02</wgt>
<wgt id='2302'>0.81002E+02</wgt>
<wgt id='2303'>0.81210E+02</wgt>
<wgt id='2304'>0.81152E+02</wgt>
<wgt id='2305'>0.81207E+02</wgt>
<wgt id='2306'>0.81129E+02</wgt>
<wgt id='2307'>0.81226E+02</wgt>
<wgt id='2308'>0.80848E+02</wgt>
<wgt id='2309'>0.81262E+02</wgt>
<wgt id='2310'>0.80849E+02</wgt>
<wgt id='2311'>0.81051E+02</wgt>
<wgt id='2312'>0.81031E+02</wgt>
<wgt id='2313'>0.80970E+02</wgt>
<wgt id='2314'>0.81476E+02</wgt>
<wgt id='2315'>0.80768E+02</wgt>
<wgt id='2316'>0.81020E+02</wgt>
<wgt id='2317'>0.81081E+02</wgt>
<wgt id='2318'>0.81088E+02</wgt>
<wgt id='2319'>0.80985E+02</wgt>
<wgt id='2320'>0.80680E+02</wgt>
<wgt id='2321'>0.81375E+02</wgt>
<wgt id='2322'>0.81305E+02</wgt>
<wgt id='2323'>0.81491E+02</wgt>
<wgt id='2324'>0.81002E+02</wgt>
<wgt id='2325'>0.80616E+02</wgt>
<wgt id='2326'>0.80976E+02</wgt>
<wgt id='2327'>0.81218E+02</wgt>
<wgt id='2328'>0.81292E+02</wgt>
<wgt id='2329'>0.81548E+02</wgt>
<wgt id='2330'>0.79973E+02</wgt>
<wgt id='2331'>0.80865E+02</wgt>
<wgt id='2332'>0.81048E+02</wgt>
<wgt id='2333'>0.81399E+02</wgt>
<wgt id='2334'>0.81320E+02</wgt>
<wgt id='2335'>0.81342E+02</wgt>
<wgt id='2336'>0.81226E+02</wgt>
<wgt id='2337'>0.80794E+02</wgt>
<wgt id='2338'>0.81217E+02</wgt>
<wgt id='2339'>0.81020E+02</wgt>
<wgt id='2340'>0.81082E+02</wgt>
<wgt id='2341'>0.81014E+02</wgt>
<wgt id='2342'>0.81230E+02</wgt>
<wgt id='2343'>0.80820E+02</wgt>
<wgt id='2344'>0.81136E+02</wgt>
<wgt id='2345'>0.81236E+02</wgt>
<wgt id='2346'>0.81072E+02</wgt>
<wgt id='2347'>0.80921E+02</wgt>
<wgt id='2348'>0.81091E+02</wgt>
<wgt id='2349'>0.81189E+02</wgt>
<wgt id='2350'>0.81053E+02</wgt>
<wgt id='2351'>0.81181E+02</wgt>
<wgt id='2352'>0.81151E+02</wgt>
<wgt id='2353'>0.81015E+02</wgt>
<wgt id='2354'>0.81122E+02</wgt>
<wgt id='2355'>0.80997E+02</wgt>
<wgt id='2356'>0.81174E+02</wgt>
<wgt id='2357'>0.81162E+02</wgt>
<wgt id='2358'>0.81078E+02</wgt>
<wgt id='2359'>0.81032E+02</wgt>
<wgt id='2360'>0.81092E+02</wgt>
<wgt id='2361'>0.81070E+02</wgt>
<wgt id='2362'>0.80953E+02</wgt>
<wgt id='2363'>0.81008E+02</wgt>
<wgt id='2364'>0.80999E+02</wgt>
<wgt id='2365'>0.81032E+02</wgt>
<wgt id='2366'>0.80976E+02</wgt>
<wgt id='2367'>0.81053E+02</wgt>
<wgt id='2368'>0.81142E+02</wgt>
<wgt id='2369'>0.81041E+02</wgt>
<wgt id='2370'>0.80960E+02</wgt>
<wgt id='2371'>0.81054E+02</wgt>
<wgt id='2372'>0.81000E+02</wgt>
<wgt id='2373'>0.81012E+02</wgt>
<wgt id='2374'>0.81135E+02</wgt>
<wgt id='2375'>0.81183E+02</wgt>
<wgt id='2376'>0.81064E+02</wgt>
<wgt id='2377'>0.81025E+02</wgt>
<wgt id='2378'>0.81121E+02</wgt>
<wgt id='2379'>0.81106E+02</wgt>
<wgt id='2380'>0.81013E+02</wgt>
<wgt id='2381'>0.81041E+02</wgt>
<wgt id='2382'>0.81136E+02</wgt>
<wgt id='2383'>0.81121E+02</wgt>
<wgt id='2384'>0.81142E+02</wgt>
<wgt id='2385'>0.81134E+02</wgt>
<wgt id='2386'>0.81017E+02</wgt>
<wgt id='2387'>0.81085E+02</wgt>
<wgt id='2388'>0.81057E+02</wgt>
<wgt id='2389'>0.81111E+02</wgt>
<wgt id='2390'>0.81068E+02</wgt>
<wgt id='2391'>0.81101E+02</wgt>
<wgt id='2392'>0.81101E+02</wgt>
<wgt id='2393'>0.81081E+02</wgt>
<wgt id='2394'>0.81120E+02</wgt>
<wgt id='2395'>0.81084E+02</wgt>
<wgt id='2396'>0.81061E+02</wgt>
<wgt id='2397'>0.81029E+02</wgt>
<wgt id='2398'>0.81100E+02</wgt>
<wgt id='2399'>0.81128E+02</wgt>
<wgt id='2400'>0.81166E+02</wgt>
<wgt id='2401'>0.78510E+02</wgt>
<wgt id='2402'>0.83825E+02</wgt>
<wgt id='2500'>0.79488E+02</wgt>
<wgt id='2501'>0.78000E+02</wgt>
<wgt id='2600'>0.81115E+02</wgt>
<wgt id='2601'>0.80930E+02</wgt>
<wgt id='2602'>0.81265E+02</wgt>
<wgt id='2603'>0.81090E+02</wgt>
<wgt id='2604'>0.81256E+02</wgt>
<wgt id='2605'>0.81252E+02</wgt>
<wgt id='2606'>0.80721E+02</wgt>
<wgt id='2607'>0.81029E+02</wgt>
<wgt id='2608'>0.81399E+02</wgt>
<wgt id='2609'>0.80986E+02</wgt>
<wgt id='2610'>0.81003E+02</wgt>
<wgt id='2611'>0.80946E+02</wgt>
<wgt id='2612'>0.81117E+02</wgt>
<wgt id='2613'>0.80888E+02</wgt>
<wgt id='2614'>0.81035E+02</wgt>
<wgt id='2615'>0.80899E+02</wgt>
<wgt id='2616'>0.80775E+02</wgt>
<wgt id='2617'>0.81428E+02</wgt>
<wgt id='2618'>0.81146E+02</wgt>
<wgt id='2619'>0.80727E+02</wgt>
<wgt id='2620'>0.81140E+02</wgt>
<wgt id='2621'>0.81128E+02</wgt>
<wgt id='2622'>0.81051E+02</wgt>
<wgt id='2623'>0.81161E+02</wgt>
<wgt id='2624'>0.81018E+02</wgt>
<wgt id='2625'>0.80938E+02</wgt>
<wgt id='2626'>0.81225E+02</wgt>
<wgt id='2627'>0.81103E+02</wgt>
<wgt id='2628'>0.81148E+02</wgt>
<wgt id='2629'>0.81126E+02</wgt>
<wgt id='2630'>0.81176E+02</wgt>
<wgt id='2631'>0.81186E+02</wgt>
<wgt id='2632'>0.81087E+02</wgt>
<wgt id='2633'>0.81132E+02</wgt>
<wgt id='2634'>0.81069E+02</wgt>
<wgt id='2635'>0.81075E+02</wgt>
<wgt id='2636'>0.80987E+02</wgt>
<wgt id='2637'>0.81092E+02</wgt>
<wgt id='2638'>0.81139E+02</wgt>
<wgt id='2639'>0.81132E+02</wgt>
<wgt id='2640'>0.81020E+02</wgt>
<wgt id='2641'>0.81137E+02</wgt>
<wgt id='2642'>0.81098E+02</wgt>
<wgt id='2643'>0.81110E+02</wgt>
<wgt id='2644'>0.81102E+02</wgt>
<wgt id='2645'>0.81072E+02</wgt>
<wgt id='2646'>0.81092E+02</wgt>
<wgt id='2647'>0.81069E+02</wgt>
<wgt id='2648'>0.81102E+02</wgt>
<wgt id='2649'>0.81118E+02</wgt>
<wgt id='2650'>0.81098E+02</wgt>
<wgt id='2651'>0.80342E+02</wgt>
<wgt id='2652'>0.81945E+02</wgt>
<wgt id='2700'>0.79327E+02</wgt>
<wgt id='2701'>0.80342E+02</wgt>
<wgt id='2702'>0.80741E+02</wgt>
<wgt id='2703'>0.81505E+02</wgt>
<wgt id='2704'>0.81945E+02</wgt>
<wgt id='2705'>0.83053E+02</wgt>
<wgt id='2800'>0.84383E+02</wgt>
<wgt id='4000'>0.80953E+02</wgt>
<wgt id='4001'>0.80931E+02</wgt>
<wgt id='4002'>0.81582E+02</wgt>
<wgt id='4003'>0.82096E+02</wgt>
<wgt id='4004'>0.79493E+02</wgt>
<wgt id='4005'>0.80453E+02</wgt>
<wgt id='4006'>0.80961E+02</wgt>
<wgt id='4007'>0.78958E+02</wgt>
<wgt id='4008'>0.82729E+02</wgt>
<wgt id='4009'>0.79875E+02</wgt>
<wgt id='4010'>0.81924E+02</wgt>
<wgt id='4011'>0.81689E+02</wgt>
<wgt id='4012'>0.80427E+02</wgt>
<wgt id='4013'>0.80097E+02</wgt>
<wgt id='4014'>0.81508E+02</wgt>
<wgt id='4015'>0.80460E+02</wgt>
<wgt id='4016'>0.80899E+02</wgt>
<wgt id='4017'>0.80972E+02</wgt>
<wgt id='4018'>0.80736E+02</wgt>
<wgt id='4019'>0.81152E+02</wgt>
<wgt id='4020'>0.80057E+02</wgt>
<wgt id='4021'>0.80971E+02</wgt>
<wgt id='4022'>0.80934E+02</wgt>
<wgt id='4023'>0.80843E+02</wgt>
<wgt id='4024'>0.80502E+02</wgt>
<wgt id='4025'>0.80908E+02</wgt>
<wgt id='4026'>0.81097E+02</wgt>
<wgt id='4027'>0.80944E+02</wgt>
<wgt id='4028'>0.80822E+02</wgt>
<wgt id='4029'>0.80869E+02</wgt>
<wgt id='4030'>0.80626E+02</wgt>
<wgt id='4031'>0.80924E+02</wgt>
<wgt id='4032'>0.80342E+02</wgt>
<wgt id='4033'>0.80220E+02</wgt>
<wgt id='4034'>0.81471E+02</wgt>
<wgt id='4035'>0.81572E+02</wgt>
<wgt id='4036'>0.80639E+02</wgt>
<wgt id='4037'>0.81248E+02</wgt>
<wgt id='4038'>0.80182E+02</wgt>
<wgt id='4039'>0.82153E+02</wgt>
<wgt id='4040'>0.79464E+02</wgt>
<wgt id='4041'>0.81582E+02</wgt>
<wgt id='4042'>0.80282E+02</wgt>
<wgt id='4043'>0.79872E+02</wgt>
<wgt id='4044'>0.82077E+02</wgt>
<wgt id='4045'>0.81245E+02</wgt>
<wgt id='4046'>0.80773E+02</wgt>
<wgt id='4047'>0.81959E+02</wgt>
<wgt id='4048'>0.79890E+02</wgt>
<wgt id='4049'>0.79655E+02</wgt>
<wgt id='4050'>0.82282E+02</wgt>
<wgt id='4051'>0.82598E+02</wgt>
<wgt id='4052'>0.78967E+02</wgt>
<wgt id='4053'>0.81199E+02</wgt>
<wgt id='4054'>0.80929E+02</wgt>
<wgt id='4055'>0.81385E+02</wgt>
<wgt id='4056'>0.80953E+02</wgt>
<wgt id='4057'>0.80968E+02</wgt>
<wgt id='4058'>0.80999E+02</wgt>
<wgt id='4100'>0.81044E+02</wgt>
<wgt id='4101'>0.81002E+02</wgt>
<wgt id='4102'>0.80906E+02</wgt>
<wgt id='4103'>0.80867E+02</wgt>
<wgt id='4200'>0.80722E+02</wgt>
<wgt id='4201'>0.81305E+02</wgt>
<wgt id='4202'>0.80507E+02</wgt>
<wgt id='4203'>0.81857E+02</wgt>
<wgt id='4204'>0.79798E+02</wgt>
<wgt id='4205'>0.81297E+02</wgt>
<wgt id='4206'>0.80038E+02</wgt>
<wgt id='4207'>0.79994E+02</wgt>
<wgt id='4208'>0.80712E+02</wgt>
<wgt id='4209'>0.80266E+02</wgt>
<wgt id='4210'>0.80676E+02</wgt>
<wgt id='4211'>0.80514E+02</wgt>
<wgt id='4212'>0.80802E+02</wgt>
<wgt id='4213'>0.81457E+02</wgt>
<wgt id='4214'>0.79454E+02</wgt>
<wgt id='4215'>0.80689E+02</wgt>
<wgt id='4216'>0.80937E+02</wgt>
<wgt id='4217'>0.81422E+02</wgt>
<wgt id='4218'>0.80301E+02</wgt>
<wgt id='4219'>0.80840E+02</wgt>
<wgt id='4220'>0.80834E+02</wgt>
<wgt id='4221'>0.80298E+02</wgt>
<wgt id='4222'>0.81371E+02</wgt>
<wgt id='4223'>0.80856E+02</wgt>
<wgt id='4224'>0.81009E+02</wgt>
<wgt id='4225'>0.80780E+02</wgt>
<wgt id='4226'>0.80273E+02</wgt>
<wgt id='4227'>0.80574E+02</wgt>
<wgt id='4228'>0.80829E+02</wgt>
<wgt id='4229'>0.81114E+02</wgt>
<wgt id='4230'>0.80153E+02</wgt>
<wgt id='4231'>0.81870E+02</wgt>
<wgt id='4232'>0.78989E+02</wgt>
<wgt id='4233'>0.80857E+02</wgt>
<wgt id='4234'>0.80746E+02</wgt>
<wgt id='4235'>0.80469E+02</wgt>
<wgt id='4236'>0.80819E+02</wgt>
<wgt id='4237'>0.81927E+02</wgt>
<wgt id='4238'>0.79864E+02</wgt>
<wgt id='4239'>0.81237E+02</wgt>
<wgt id='4240'>0.80311E+02</wgt>
<wgt id='4241'>0.81263E+02</wgt>
<wgt id='4242'>0.80272E+02</wgt>
<wgt id='4243'>0.80269E+02</wgt>
<wgt id='4244'>0.81271E+02</wgt>
<wgt id='4245'>0.79038E+02</wgt>
<wgt id='4246'>0.82518E+02</wgt>
<wgt id='4247'>0.81366E+02</wgt>
<wgt id='4248'>0.80307E+02</wgt>
<wgt id='4249'>0.81349E+02</wgt>
<wgt id='4250'>0.80072E+02</wgt>
<wgt id='4251'>0.80006E+02</wgt>
<wgt id='4252'>0.81174E+02</wgt>
<wgt id='4253'>0.80315E+02</wgt>
<wgt id='4254'>0.81254E+02</wgt>
<wgt id='4255'>0.81014E+02</wgt>
<wgt id='4256'>0.80161E+02</wgt>
<wgt id='4257'>0.80319E+02</wgt>
<wgt id='4258'>0.80849E+02</wgt>
<wgt id='4300'>0.79127E+02</wgt>
<wgt id='4301'>0.81243E+02</wgt>
<wgt id='5000'>0.78177E+02</wgt>
<wgt id='5001'>0.78347E+02</wgt>
<wgt id='5002'>0.77960E+02</wgt>
<wgt id='5003'>0.77876E+02</wgt>
<wgt id='5004'>0.78453E+02</wgt>
<wgt id='5005'>0.78024E+02</wgt>
<wgt id='5006'>0.78427E+02</wgt>
<wgt id='5007'>0.78271E+02</wgt>
<wgt id='5008'>0.78101E+02</wgt>
<wgt id='5009'>0.78082E+02</wgt>
<wgt id='5010'>0.78275E+02</wgt>
<wgt id='5011'>0.78019E+02</wgt>
<wgt id='5012'>0.78331E+02</wgt>
<wgt id='5013'>0.78519E+02</wgt>
<wgt id='5014'>0.77934E+02</wgt>
<wgt id='5015'>0.78523E+02</wgt>
<wgt id='5016'>0.78523E+02</wgt>
<wgt id='5017'>0.77955E+02</wgt>
<wgt id='5018'>0.78328E+02</wgt>
<wgt id='5019'>0.77661E+02</wgt>
<wgt id='5020'>0.78894E+02</wgt>
<wgt id='5021'>0.78216E+02</wgt>
<wgt id='5022'>0.78083E+02</wgt>
<wgt id='5023'>0.78137E+02</wgt>
<wgt id='5024'>0.78273E+02</wgt>
<wgt id='5025'>0.78194E+02</wgt>
<wgt id='5026'>0.78160E+02</wgt>
<wgt id='5027'>0.78108E+02</wgt>
<wgt id='5028'>0.78365E+02</wgt>
<wgt id='5029'>0.77490E+02</wgt>
<wgt id='5030'>0.78555E+02</wgt>
<wgt id='5031'>0.78289E+02</wgt>
<wgt id='5032'>0.77789E+02</wgt>
<wgt id='5033'>0.78218E+02</wgt>
<wgt id='5034'>0.78132E+02</wgt>
<wgt id='5035'>0.78446E+02</wgt>
<wgt id='5036'>0.77822E+02</wgt>
<wgt id='5037'>0.78627E+02</wgt>
<wgt id='5038'>0.77926E+02</wgt>
<wgt id='5039'>0.78122E+02</wgt>
<wgt id='5040'>0.78326E+02</wgt>
<wgt id='5041'>0.78362E+02</wgt>
<wgt id='5042'>0.77982E+02</wgt>
<wgt id='5043'>0.77223E+02</wgt>
<wgt id='5044'>0.79051E+02</wgt>
<wgt id='5045'>0.77995E+02</wgt>
<wgt id='5046'>0.78428E+02</wgt>
<wgt id='5047'>0.78178E+02</wgt>
<wgt id='5048'>0.78243E+02</wgt>
<wgt id='5049'>0.78354E+02</wgt>
<wgt id='5050'>0.77904E+02</wgt>
<wgt id='5051'>0.78326E+02</wgt>
<wgt id='5052'>0.78027E+02</wgt>
<wgt id='5053'>0.77746E+02</wgt>
<wgt id='5054'>0.78390E+02</wgt>
<wgt id='5055'>0.78131E+02</wgt>
<wgt id='5056'>0.77910E+02</wgt>
<wgt id='5057'>0.77998E+02</wgt>
<wgt id='5058'>0.78271E+02</wgt>
<wgt id='5059'>0.78272E+02</wgt>
<wgt id='5060'>0.78124E+02</wgt>
<wgt id='5061'>0.78067E+02</wgt>
<wgt id='5062'>0.78023E+02</wgt>
<wgt id='5063'>0.78594E+02</wgt>
<wgt id='5064'>0.78329E+02</wgt>
<wgt id='5100'>0.78177E+02</wgt>
<wgt id='5101'>0.78216E+02</wgt>
<wgt id='6000'>0.79414E+02</wgt>
<wgt id='6001'>0.79528E+02</wgt>
<wgt id='6002'>0.77856E+02</wgt>
<wgt id='6003'>0.79294E+02</wgt>
<wgt id='6004'>0.79446E+02</wgt>
<wgt id='6005'>0.79545E+02</wgt>
<wgt id='6006'>0.78859E+02</wgt>
<wgt id='6007'>0.79522E+02</wgt>
<wgt id='6008'>0.78614E+02</wgt>
<wgt id='6009'>0.79702E+02</wgt>
<wgt id='6010'>0.79385E+02</wgt>
<wgt id='6011'>0.79481E+02</wgt>
<wgt id='6012'>0.79562E+02</wgt>
<wgt id='6013'>0.79425E+02</wgt>
<wgt id='6014'>0.79566E+02</wgt>
<wgt id='6015'>0.79668E+02</wgt>
<wgt id='6016'>0.79768E+02</wgt>
<wgt id='6017'>0.79554E+02</wgt>
<wgt id='6018'>0.79810E+02</wgt>
<wgt id='6019'>0.79536E+02</wgt>
<wgt id='6020'>0.79472E+02</wgt>
<wgt id='6021'>0.79341E+02</wgt>
<wgt id='6022'>0.79296E+02</wgt>
<wgt id='6023'>0.79508E+02</wgt>
<wgt id='6024'>0.79442E+02</wgt>
<wgt id='6025'>0.78457E+02</wgt>
<wgt id='6026'>0.79495E+02</wgt>
<wgt id='6027'>0.79427E+02</wgt>
<wgt id='6028'>0.79427E+02</wgt>
<wgt id='6029'>0.79510E+02</wgt>
<wgt id='6030'>0.79632E+02</wgt>
<wgt id='6031'>0.79381E+02</wgt>
<wgt id='6032'>0.79495E+02</wgt>
<wgt id='6033'>0.79462E+02</wgt>
<wgt id='6034'>0.79451E+02</wgt>
<wgt id='6035'>0.79536E+02</wgt>
<wgt id='6036'>0.79426E+02</wgt>
<wgt id='6037'>0.79404E+02</wgt>
<wgt id='6038'>0.79412E+02</wgt>
<wgt id='6039'>0.79445E+02</wgt>
<wgt id='6040'>0.79269E+02</wgt>
<wgt id='6041'>0.78273E+02</wgt>
<wgt id='6042'>0.80945E+02</wgt>
<wgt id='7000'>0.88590E+02</wgt>
<wgt id='7001'>0.88688E+02</wgt>
<wgt id='7002'>0.88483E+02</wgt>
<wgt id='7003'>0.88527E+02</wgt>
<wgt id='7004'>0.88643E+02</wgt>
<wgt id='7005'>0.88370E+02</wgt>
<wgt id='7006'>0.88799E+02</wgt>
<wgt id='7007'>0.88300E+02</wgt>
<wgt id='7008'>0.88859E+02</wgt>
<wgt id='7009'>0.89116E+02</wgt>
<wgt id='7010'>0.88051E+02</wgt>
<wgt id='7011'>0.88916E+02</wgt>
<wgt id='7012'>0.88254E+02</wgt>
<wgt id='7013'>0.88355E+02</wgt>
<wgt id='7014'>0.88816E+02</wgt>
<wgt id='7015'>0.88455E+02</wgt>
<wgt id='7016'>0.88754E+02</wgt>
<wgt id='7017'>0.88805E+02</wgt>
<wgt id='7018'>0.88354E+02</wgt>
<wgt id='7019'>0.88456E+02</wgt>
<wgt id='7020'>0.88712E+02</wgt>
<wgt id='7021'>0.88021E+02</wgt>
<wgt id='7022'>0.89119E+02</wgt>
<wgt id='7023'>0.88573E+02</wgt>
<wgt id='7024'>0.88470E+02</wgt>
<wgt id='7025'>0.88406E+02</wgt>
<wgt id='7026'>0.88500E+02</wgt>
<wgt id='7027'>0.88161E+02</wgt>
<wgt id='7028'>0.88830E+02</wgt>
<wgt id='8000'>0.82823E+02</wgt>
<wgt id='8001'>0.82807E+02</wgt>
<wgt id='8002'>0.82728E+02</wgt>
<wgt id='8003'>0.82922E+02</wgt>
<wgt id='8004'>0.82823E+02</wgt>
<wgt id='8005'>0.82819E+02</wgt>
<wgt id='8006'>0.82701E+02</wgt>
<wgt id='8007'>0.82906E+02</wgt>
<wgt id='8008'>0.82409E+02</wgt>
<wgt id='8009'>0.82685E+02</wgt>
<wgt id='8010'>0.82811E+02</wgt>
<wgt id='8011'>0.82632E+02</wgt>
<wgt id='8012'>0.82920E+02</wgt>
<wgt id='8013'>0.82875E+02</wgt>
<wgt id='8014'>0.82684E+02</wgt>
<wgt id='8015'>0.82834E+02</wgt>
<wgt id='8016'>0.82776E+02</wgt>
<wgt id='8017'>0.82668E+02</wgt>
<wgt id='8018'>0.82591E+02</wgt>
<wgt id='8019'>0.82836E+02</wgt>
<wgt id='8020'>0.82430E+02</wgt>
<wgt id='8021'>0.82611E+02</wgt>
<wgt id='8022'>0.82740E+02</wgt>
<wgt id='8023'>0.82831E+02</wgt>
<wgt id='8024'>0.83011E+02</wgt>
<wgt id='8025'>0.82915E+02</wgt>
<wgt id='8026'>0.82516E+02</wgt>
<wgt id='8027'>0.82615E+02</wgt>
<wgt id='8028'>0.82951E+02</wgt>
<wgt id='8029'>0.82338E+02</wgt>
<wgt id='3000'>0.81104E+02</wgt>
<wgt id='3001'>0.83726E+02</wgt>
<wgt id='3002'>0.81044E+02</wgt>
<wgt id='3003'>0.79764E+02</wgt>
<wgt id='3004'>0.79450E+02</wgt>
<wgt id='3005'>0.80463E+02</wgt>
<wgt id='3006'>0.82369E+02</wgt>
<wgt id='3007'>0.82118E+02</wgt>
<wgt id='3008'>0.81912E+02</wgt>
<wgt id='3009'>0.79652E+02</wgt>
<wgt id='3010'>0.75439E+02</wgt>
<wgt id='3011'>0.81578E+02</wgt>
<wgt id='3012'>0.79923E+02</wgt>
<wgt id='3013'>0.79645E+02</wgt>
<wgt id='3014'>0.83630E+02</wgt>
<wgt id='3015'>0.82506E+02</wgt>
<wgt id='3016'>0.80595E+02</wgt>
<wgt id='3017'>0.81000E+02</wgt>
<wgt id='3018'>0.81170E+02</wgt>
<wgt id='3019'>0.81441E+02</wgt>
<wgt id='3020'>0.79003E+02</wgt>
<wgt id='3021'>0.80462E+02</wgt>
<wgt id='3022'>0.82606E+02</wgt>
<wgt id='3023'>0.82473E+02</wgt>
<wgt id='3024'>0.80006E+02</wgt>
<wgt id='3025'>0.82143E+02</wgt>
<wgt id='3026'>0.84857E+02</wgt>
<wgt id='3027'>0.79362E+02</wgt>
<wgt id='3028'>0.81799E+02</wgt>
<wgt id='3029'>0.80974E+02</wgt>
<wgt id='3030'>0.80491E+02</wgt>
<wgt id='3031'>0.82137E+02</wgt>
<wgt id='3032'>0.80370E+02</wgt>
<wgt id='3033'>0.83045E+02</wgt>
<wgt id='3034'>0.79602E+02</wgt>
<wgt id='3035'>0.81859E+02</wgt>
<wgt id='3036'>0.82463E+02</wgt>
<wgt id='3037'>0.80465E+02</wgt>
<wgt id='3038'>0.80918E+02</wgt>
<wgt id='3039'>0.80186E+02</wgt>
<wgt id='3040'>0.83462E+02</wgt>
<wgt id='3041'>0.82196E+02</wgt>
<wgt id='3042'>0.81687E+02</wgt>
<wgt id='3043'>0.80335E+02</wgt>
<wgt id='3044'>0.81766E+02</wgt>
<wgt id='3045'>0.81893E+02</wgt>
<wgt id='3046'>0.81752E+02</wgt>
<wgt id='3047'>0.81835E+02</wgt>
<wgt id='3048'>0.82630E+02</wgt>
<wgt id='3049'>0.82538E+02</wgt>
<wgt id='3050'>0.79661E+02</wgt>
<wgt id='3051'>0.80290E+02</wgt>
<wgt id='3052'>0.81384E+02</wgt>
<wgt id='3053'>0.82433E+02</wgt>
<wgt id='3054'>0.81829E+02</wgt>
<wgt id='3055'>0.84543E+02</wgt>
<wgt id='3056'>0.79433E+02</wgt>
<wgt id='3057'>0.81488E+02</wgt>
<wgt id='3058'>0.81538E+02</wgt>
<wgt id='3059'>0.82318E+02</wgt>
<wgt id='3060'>0.83981E+02</wgt>
<wgt id='3061'>0.79955E+02</wgt>
<wgt id='3062'>0.80380E+02</wgt>
<wgt id='3063'>0.80816E+02</wgt>
<wgt id='3064'>0.82217E+02</wgt>
<wgt id='3065'>0.82698E+02</wgt>
<wgt id='3066'>0.83582E+02</wgt>
<wgt id='3067'>0.82104E+02</wgt>
<wgt id='3068'>0.80735E+02</wgt>
<wgt id='3069'>0.81391E+02</wgt>
<wgt id='3070'>0.79561E+02</wgt>
<wgt id='3071'>0.80980E+02</wgt>
<wgt id='3072'>0.77408E+02</wgt>
<wgt id='3073'>0.79237E+02</wgt>
<wgt id='3074'>0.79262E+02</wgt>
<wgt id='3075'>0.79779E+02</wgt>
<wgt id='3076'>0.83742E+02</wgt>
<wgt id='3077'>0.78160E+02</wgt>
<wgt id='3078'>0.83321E+02</wgt>
<wgt id='3079'>0.81472E+02</wgt>
<wgt id='3080'>0.80628E+02</wgt>
<wgt id='3081'>0.80543E+02</wgt>
<wgt id='3082'>0.80595E+02</wgt>
<wgt id='3083'>0.80093E+02</wgt>
<wgt id='3084'>0.80573E+02</wgt>
<wgt id='3085'>0.82104E+02</wgt>
<wgt id='3086'>0.80077E+02</wgt>
<wgt id='3087'>0.80395E+02</wgt>
<wgt id='3088'>0.80183E+02</wgt>
<wgt id='3089'>0.76692E+02</wgt>
<wgt id='3090'>0.81347E+02</wgt>
<wgt id='3091'>0.82311E+02</wgt>
<wgt id='3092'>0.80850E+02</wgt>
<wgt id='3093'>0.80242E+02</wgt>
<wgt id='3094'>0.79622E+02</wgt>
<wgt id='3095'>0.78774E+02</wgt>
<wgt id='3096'>0.83677E+02</wgt>
<wgt id='3097'>0.80910E+02</wgt>
<wgt id='3098'>0.79900E+02</wgt>
<wgt id='3099'>0.81625E+02</wgt>
<wgt id='3100'>0.80801E+02</wgt>
<wgt id='3200'>0.81140E+02</wgt>
<wgt id='3201'>0.80820E+02</wgt>
<wgt id='3202'>0.81006E+02</wgt>
<wgt id='3203'>0.82598E+02</wgt>
<wgt id='3204'>0.79695E+02</wgt>
<wgt id='3205'>0.80474E+02</wgt>
<wgt id='3206'>0.81806E+02</wgt>
<wgt id='3207'>0.80632E+02</wgt>
<wgt id='3208'>0.82390E+02</wgt>
<wgt id='3209'>0.81244E+02</wgt>
<wgt id='3210'>0.80607E+02</wgt>
<wgt id='3211'>0.81460E+02</wgt>
<wgt id='3212'>0.83063E+02</wgt>
<wgt id='3213'>0.79319E+02</wgt>
<wgt id='3214'>0.80107E+02</wgt>
<wgt id='3215'>0.80326E+02</wgt>
<wgt id='3216'>0.79175E+02</wgt>
<wgt id='3217'>0.82275E+02</wgt>
<wgt id='3218'>0.81368E+02</wgt>
<wgt id='3219'>0.82003E+02</wgt>
<wgt id='3220'>0.81101E+02</wgt>
<wgt id='3221'>0.81491E+02</wgt>
<wgt id='3222'>0.80940E+02</wgt>
<wgt id='3223'>0.81831E+02</wgt>
<wgt id='3224'>0.80531E+02</wgt>
<wgt id='3225'>0.82290E+02</wgt>
<wgt id='3226'>0.81864E+02</wgt>
<wgt id='3227'>0.80149E+02</wgt>
<wgt id='3228'>0.80573E+02</wgt>
<wgt id='3229'>0.82040E+02</wgt>
<wgt id='3230'>0.80954E+02</wgt>
<wgt id='3231'>0.80723E+02</wgt>
<wgt id='3232'>0.80379E+02</wgt>
<wgt id='3233'>0.81677E+02</wgt>
<wgt id='3234'>0.80627E+02</wgt>
<wgt id='3235'>0.80251E+02</wgt>
<wgt id='3236'>0.80105E+02</wgt>
<wgt id='3237'>0.81326E+02</wgt>
<wgt id='3238'>0.80182E+02</wgt>
<wgt id='3239'>0.82165E+02</wgt>
<wgt id='3240'>0.82994E+02</wgt>
<wgt id='3241'>0.81489E+02</wgt>
<wgt id='3242'>0.79350E+02</wgt>
<wgt id='3243'>0.81448E+02</wgt>
<wgt id='3244'>0.80176E+02</wgt>
<wgt id='3245'>0.80126E+02</wgt>
<wgt id='3246'>0.81580E+02</wgt>
<wgt id='3247'>0.81195E+02</wgt>
<wgt id='3248'>0.83092E+02</wgt>
<wgt id='3249'>0.79970E+02</wgt>
<wgt id='3250'>0.82558E+02</wgt>
<wgt id='3251'>0.80134E+02</wgt>
<wgt id='3252'>0.80821E+02</wgt>
<wgt id='3253'>0.81222E+02</wgt>
<wgt id='3254'>0.81941E+02</wgt>
<wgt id='3255'>0.80612E+02</wgt>
<wgt id='3256'>0.79641E+02</wgt>
<wgt id='3257'>0.81033E+02</wgt>
<wgt id='3258'>0.80950E+02</wgt>
<wgt id='3259'>0.79128E+02</wgt>
<wgt id='3260'>0.80229E+02</wgt>
<wgt id='3261'>0.78861E+02</wgt>
<wgt id='3262'>0.83050E+02</wgt>
<wgt id='3263'>0.82023E+02</wgt>
<wgt id='3264'>0.80783E+02</wgt>
<wgt id='3265'>0.78543E+02</wgt>
<wgt id='3266'>0.81326E+02</wgt>
<wgt id='3267'>0.81919E+02</wgt>
<wgt id='3268'>0.81378E+02</wgt>
<wgt id='3269'>0.80543E+02</wgt>
<wgt id='3270'>0.82309E+02</wgt>
<wgt id='3271'>0.81018E+02</wgt>
<wgt id='3272'>0.81871E+02</wgt>
<wgt id='3273'>0.80924E+02</wgt>
<wgt id='3274'>0.80711E+02</wgt>
<wgt id='3275'>0.81257E+02</wgt>
<wgt id='3276'>0.81731E+02</wgt>
<wgt id='3277'>0.81829E+02</wgt>
<wgt id='3278'>0.81850E+02</wgt>
<wgt id='3279'>0.80424E+02</wgt>
<wgt id='3280'>0.80275E+02</wgt>
<wgt id='3281'>0.81107E+02</wgt>
<wgt id='3282'>0.81485E+02</wgt>
<wgt id='3283'>0.82273E+02</wgt>
<wgt id='3284'>0.81120E+02</wgt>
<wgt id='3285'>0.80248E+02</wgt>
<wgt id='3286'>0.82628E+02</wgt>
<wgt id='3287'>0.83566E+02</wgt>
<wgt id='3288'>0.81207E+02</wgt>
<wgt id='3289'>0.81440E+02</wgt>
<wgt id='3290'>0.81439E+02</wgt>
<wgt id='3291'>0.80917E+02</wgt>
<wgt id='3292'>0.82280E+02</wgt>
<wgt id='3293'>0.81280E+02</wgt>
<wgt id='3294'>0.81225E+02</wgt>
<wgt id='3295'>0.81718E+02</wgt>
<wgt id='3296'>0.83330E+02</wgt>
<wgt id='3297'>0.80264E+02</wgt>
<wgt id='3298'>0.80755E+02</wgt>
<wgt id='3299'>0.81179E+02</wgt>
<wgt id='3300'>0.80602E+02</wgt>
<wgt id='3301'>0.80342E+02</wgt>
<wgt id='3302'>0.81945E+02</wgt>
<wgt id='3400'>0.81964E+02</wgt>
<wgt id='3401'>0.81777E+02</wgt>
<wgt id='3402'>0.81756E+02</wgt>
<wgt id='3403'>0.82726E+02</wgt>
<wgt id='3404'>0.80711E+02</wgt>
<wgt id='3405'>0.81219E+02</wgt>
<wgt id='3406'>0.83817E+02</wgt>
<wgt id='3407'>0.82843E+02</wgt>
<wgt id='3408'>0.80855E+02</wgt>
<wgt id='3409'>0.82976E+02</wgt>
<wgt id='3410'>0.81201E+02</wgt>
<wgt id='3411'>0.82477E+02</wgt>
<wgt id='3412'>0.81976E+02</wgt>
<wgt id='3413'>0.82325E+02</wgt>
<wgt id='3414'>0.82072E+02</wgt>
<wgt id='3415'>0.81400E+02</wgt>
<wgt id='3416'>0.82419E+02</wgt>
<wgt id='3417'>0.82641E+02</wgt>
<wgt id='3418'>0.82355E+02</wgt>
<wgt id='3419'>0.82081E+02</wgt>
<wgt id='3420'>0.81147E+02</wgt>
<wgt id='3421'>0.82128E+02</wgt>
<wgt id='3422'>0.82892E+02</wgt>
<wgt id='3423'>0.81685E+02</wgt>
<wgt id='3424'>0.81244E+02</wgt>
<wgt id='3425'>0.82363E+02</wgt>
<wgt id='3426'>0.83616E+02</wgt>
<wgt id='3427'>0.82522E+02</wgt>
<wgt id='3428'>0.82732E+02</wgt>
<wgt id='3429'>0.80963E+02</wgt>
<wgt id='3430'>0.83041E+02</wgt>
<wgt id='3431'>0.81237E+02</wgt>
<wgt id='3432'>0.80978E+02</wgt>
<wgt id='3433'>0.82134E+02</wgt>
<wgt id='3434'>0.81271E+02</wgt>
<wgt id='3435'>0.81474E+02</wgt>
<wgt id='3436'>0.83720E+02</wgt>
<wgt id='3437'>0.80888E+02</wgt>
<wgt id='3438'>0.81210E+02</wgt>
<wgt id='3439'>0.81227E+02</wgt>
<wgt id='3440'>0.81093E+02</wgt>
<wgt id='3441'>0.81188E+02</wgt>
<wgt id='3442'>0.80823E+02</wgt>
<wgt id='3443'>0.81114E+02</wgt>
<wgt id='3444'>0.82280E+02</wgt>
<wgt id='3445'>0.82273E+02</wgt>
<wgt id='3446'>0.80754E+02</wgt>
<wgt id='3447'>0.83899E+02</wgt>
<wgt id='3448'>0.83340E+02</wgt>
<wgt id='3449'>0.82283E+02</wgt>
<wgt id='3450'>0.81881E+02</wgt>
<wgt id='3451'>0.82165E+02</wgt>
<wgt id='3452'>0.81926E+02</wgt>
<wgt id='3453'>0.82841E+02</wgt>
<wgt id='3454'>0.82342E+02</wgt>
<wgt id='3455'>0.81872E+02</wgt>
<wgt id='3456'>0.81431E+02</wgt>
<wgt id='3457'>0.81636E+02</wgt>
<wgt id='3458'>0.81088E+02</wgt>
<wgt id='3459'>0.82229E+02</wgt>
<wgt id='3460'>0.82425E+02</wgt>
<wgt id='3461'>0.81235E+02</wgt>
<wgt id='3462'>0.80890E+02</wgt>
<wgt id='3463'>0.81745E+02</wgt>
<wgt id='3464'>0.81154E+02</wgt>
<wgt id='3465'>0.81565E+02</wgt>
<wgt id='3466'>0.81424E+02</wgt>
<wgt id='3467'>0.82114E+02</wgt>
<wgt id='3468'>0.81665E+02</wgt>
<wgt id='3469'>0.82492E+02</wgt>
<wgt id='3470'>0.81977E+02</wgt>
<wgt id='3471'>0.81725E+02</wgt>
<wgt id='3472'>0.82532E+02</wgt>
<wgt id='3473'>0.81222E+02</wgt>
<wgt id='3474'>0.81427E+02</wgt>
<wgt id='3475'>0.82244E+02</wgt>
<wgt id='3476'>0.82442E+02</wgt>
<wgt id='3477'>0.82745E+02</wgt>
<wgt id='3478'>0.81312E+02</wgt>
<wgt id='3479'>0.83442E+02</wgt>
<wgt id='3480'>0.82090E+02</wgt>
<wgt id='3481'>0.82748E+02</wgt>
<wgt id='3482'>0.80857E+02</wgt>
<wgt id='3483'>0.82325E+02</wgt>
<wgt id='3484'>0.81670E+02</wgt>
<wgt id='3485'>0.82350E+02</wgt>
<wgt id='3486'>0.82370E+02</wgt>
<wgt id='3487'>0.82314E+02</wgt>
<wgt id='3488'>0.81441E+02</wgt>
<wgt id='3489'>0.81810E+02</wgt>
<wgt id='3490'>0.79300E+02</wgt>
<wgt id='3491'>0.82842E+02</wgt>
<wgt id='3492'>0.82698E+02</wgt>
<wgt id='3493'>0.81073E+02</wgt>
<wgt id='3494'>0.80808E+02</wgt>
<wgt id='3495'>0.82114E+02</wgt>
<wgt id='3496'>0.82152E+02</wgt>
<wgt id='3497'>0.82380E+02</wgt>
<wgt id='3498'>0.82749E+02</wgt>
<wgt id='3499'>0.83546E+02</wgt>
<wgt id='3500'>0.82520E+02</wgt>
</rwgt>
</event>
<event>
     13 322200  8.11039E+01  4.69644E+01 -1.00000E+00  1.38590E-01
      21    -1     0     0   502   503  0.000000000E+00  0.000000000E+00  1.650536614E+02  1.650536614E+02  0.000000000E+00  0.00000E+00  9.000E+00
       2    -1     0     0   503     0  0.000000000E+00  0.000000000E+00 -2.480638965E+03  2.480638965E+03  0.000000000E+00  0.00000E+00  9.000E+00
       6     2     1     2   502     0  4.438106369E+01 -6.675247517E+01 -1.899338491E+02  2.683518014E+02  1.717912993E+02  0.00000E+00  9.000E+00
      -6     2     1     2     0   512 -1.986764473E+01  1.068117879E+02  4.311960100E+01  2.080613153E+02  1.721241691E+02  0.00000E+00  9.000E+00
       2     1     1     2   512     0 -2.451341896E+01 -4.005931269E+01 -2.168771056E+03  2.169279510E+03  2.100000000E-01  0.00000E+00  9.000E+00
      24     2     3     3     0     0 -3.434517286E+01 -7.031337550E+01 -1.032365327E+02  1.510806259E+02  7.774324515E+01  0.00000E+00  9.000E+00
       5     1     3     3   502     0  7.872623655E+01  3.560900329E+00 -8.669731642E+01  1.172711755E+02  5.060000000E+00  0.00000E+00 -1.000E+00
     -24     2     4     4     0     0  4.149097342E+01  3.352437500E+01 -2.665531266E+01  8.961273116E+01  6.689208696E+01  0.00000E+00  9.000E+00
      -5     1     4     4     0   512 -6.135861815E+01  7.328741286E+01  6.977491366E+01  1.184485841E+02  5.060000000E+00  0.00000E+00  1.000E+00
     -15     1     6     6     0     0  1.226926763E+01 -5.955921082E+01 -4.475397228E+01  7.552423642E+01  1.777000000E+00  0.00000E+00  1.000E+00
      16     1     6     6     0     0 -4.661444049E+01 -1.075416468E+01 -5.848256039E+01  7.555638947E+01  0.000000000E+00  0.00000E+00 -1.000E+00
      13     1     8     8     0     0  7.626640253E+00 -1.993525376E+01 -1.260566646E+01  2.478898916E+01  1.057000000E-01  0.00000E+00 -1.000E+00
     -14     1     8     8     0     0  3.386433317E+01  5.345962876E+01 -1.404964620E+01  6.482374200E+01  0.000000000E+00  0.00000E+00  1.000E+00
#rwgt            1           1   709.71604408630935               10       17353           0
<rwgt>
<wgt id='1001'>0.81104E+02</wgt>
<wgt id='1002'>0.81333E+02</wgt>
<wgt id='1003'>0.80565E+02</wgt>
<wgt id='1004'>0.68928E+02</wgt>
<wgt id='1005'>0.68764E+02</wgt>
<wgt id='1006'>0.68850E+02</wgt>
<wgt id='1007'>0.96893E+02</wgt>
<wgt id='1008'>0.97792E+02</wgt>
<wgt id='1009'>0.95587E+02</wgt>
<wgt id='2000'>0.81104E+02</wgt>
<wgt id='2001'>0.81257E+02</wgt>
<wgt id='2002'>0.80877E+02</wgt>
<wgt id='2003'>0.80963E+02</wgt>
<wgt id='2004'>0.81286E+02</wgt>
<wgt id='2005'>0.81250E+02</wgt>
<wgt id='2006'>0.81324E+02</wgt>
<wgt id='2007'>0.81385E+02</wgt>
<wgt id='2008'>0.81624E+02</wgt>
<wgt id='2009'>0.80977E+02</wgt>
<wgt id='2010'>0.81074E+02</wgt>
<wgt id='2011'>0.80606E+02</wgt>
<wgt id='2012'>0.81361E+02</wgt>
<wgt id='2013'>0.81221E+02</wgt>
<wgt id='2014'>0.81366E+02</wgt>
<wgt id='2015'>0.81274E+02</wgt>
<wgt id='2016'>0.81097E+02</wgt>
<wgt id='2017'>0.81009E+02</wgt>
<wgt id='2018'>0.81085E+02</wgt>
<wgt id='2019'>0.81607E+02</wgt>
<wgt id='2020'>0.80813E+02</wgt>
<wgt id='2021'>0.81141E+02</wgt>
<wgt id='2022'>0.80890E+02</wgt>
<wgt id='2023'>0.81095E+02</wgt>
<wgt id='2024'>0.81095E+02</wgt>
<wgt id='2025'>0.81070E+02</wgt>
<wgt id='2026'>0.81015E+02</wgt>
<wgt id='2027'>0.80849E+02</wgt>
<wgt id='2028'>0.81251E+02</wgt>
<wgt id='2029'>0.80836E+02</wgt>
<wgt id='2030'>0.81064E+02</wgt>
<wgt id='2031'>0.80857E+02</wgt>
<wgt id='2032'>0.81121E+02</wgt>
<wgt id='2033'>0.81017E+02</wgt>
<wgt id='2034'>0.80988E+02</wgt>
<wgt id='2035'>0.81114E+02</wgt>
<wgt id='2036'>0.81254E+02</wgt>
<wgt id='2037'>0.81098E+02</wgt>
<wgt id='2038'>0.81081E+02</wgt>
<wgt id='2039'>0.81112E+02</wgt>
<wgt id='2040'>0.81065E+02</wgt>
<wgt id='2041'>0.81107E+02</wgt>
<wgt id='2042'>0.81129E+02</wgt>
<wgt id='2043'>0.81051E+02</wgt>
<wgt id='2044'>0.81158E+02</wgt>
<wgt id='2045'>0.81132E+02</wgt>
<wgt id='2046'>0.81120E+02</wgt>
<wgt id='2047'>0.81087E+02</wgt>
<wgt id='2048'>0.81067E+02</wgt>
<wgt id='2049'>0.81044E+02</wgt>
<wgt id='2050'>0.81067E+02</wgt>
<wgt id='2051'>0.81089E+02</wgt>
<wgt id='2052'>0.81171E+02</wgt>
<wgt id='2053'>0.81088E+02</wgt>
<wgt id='2054'>0.81102E+02</wgt>
<wgt id='2055'>0.81118E+02</wgt>
<wgt id='2056'>0.81080E+02</wgt>
<wgt id='2057'>0.81133E+02</wgt>
<wgt id='2058'>0.81118E+02</wgt>
<wgt id='2059'>0.81123E+02</wgt>
<wgt id='2060'>0.81109E+02</wgt>
<wgt id='2061'>0.81092E+02</wgt>
<wgt id='2062'>0.81169E+02</wgt>
<wgt id='2063'>0.81122E+02</wgt>
<wgt id='2064'>0.81127E+02</wgt>
<wgt id='2065'>0.81169E+02</wgt>
<wgt id='2066'>0.81102E+02</wgt>
<wgt id='2067'>0.81124E+02</wgt>
<wgt id='2068'>0.81111E+02</wgt>
<wgt id='2069'>0.81118E+02</wgt>
<wgt id='2070'>0.81111E+02</wgt>
<wgt id='2071'>0.81105E+02</wgt>
<wgt id='2072'>0.81106E+02</wgt>
<wgt id='2073'>0.81121E+02</wgt>
<wgt id='2074'>0.81090E+02</wgt>
<wgt id='2075'>0.81089E+02</wgt>
<wgt id='2076'>0.81102E+02</wgt>
<wgt id='2077'>0.81143E+02</wgt>
<wgt id='2078'>0.81115E+02</wgt>
<wgt id='2079'>0.81085E+02</wgt>
<wgt id='2080'>0.81103E+02</wgt>
<wgt id='2081'>0.81092E+02</wgt>
<wgt id='2082'>0.81116E+02</wgt>
<wgt id='2083'>0.81128E+02</wgt>
<wgt id='2084'>0.81115E+02</wgt>
<wgt id='2085'>0.81104E+02</wgt>
<wgt id='2086'>0.81092E+02</wgt>
<wgt id='2087'>0.81117E+02</wgt>
<wgt id='2088'>0.81102E+02</wgt>
<wgt id='2089'>0.81096E+02</wgt>
<wgt id='2090'>0.81118E+02</wgt>
<wgt id='2091'>0.81105E+02</wgt>
<wgt id='2092'>0.81114E+02</wgt>
<wgt id='2093'>0.81092E+02</wgt>
<wgt id='2094'>0.81106E+02</wgt>
<wgt id='2095'>0.81114E+02</wgt>
<wgt id='2096'>0.81096E+02</wgt>
<wgt id='2097'>0.81114E+02</wgt>
<wgt id='2098'>0.81103E+02</wgt>
<wgt id='2099'>0.81115E+02</wgt>
<wgt id='2100'>0.81104E+02</wgt>
<wgt id='2101'>0.78757E+02</wgt>
<wgt id='2102'>0.83303E+02</wgt>
<wgt id='2200'>0.81147E+02</wgt>
<wgt id='2201'>0.70708E+02</wgt>
<wgt id='2202'>0.72623E+02</wgt>
<wgt id='2203'>0.75003E+02</wgt>
<wgt id='2204'>0.77206E+02</wgt>
<wgt id='2205'>0.80223E+02</wgt>
<wgt id='2206'>0.82421E+02</wgt>
<wgt id='2207'>0.85068E+02</wgt>
<wgt id='2208'>0.87220E+02</wgt>
<wgt id='2300'>0.84665E+02</wgt>
<wgt id='2301'>0.84805E+02</wgt>
<wgt id='2302'>0.84584E+02</wgt>
<wgt id='2303'>0.84812E+02</wgt>
<wgt id='2304'>0.84845E+02</wgt>
<wgt id='2305'>0.84970E+02</wgt>
<wgt id='2306'>0.84677E+02</wgt>
<wgt id='2307'>0.84975E+02</wgt>
<wgt id='2308'>0.84555E+02</wgt>
<wgt id='2309'>0.84936E+02</wgt>
<wgt id='2310'>0.84456E+02</wgt>
<wgt id='2311'>0.84559E+02</wgt>
<wgt id='2312'>0.84965E+02</wgt>
<wgt id='2313'>0.84522E+02</wgt>
<wgt id='2314'>0.84934E+02</wgt>
<wgt id='2315'>0.84585E+02</wgt>
<wgt id='2316'>0.84738E+02</wgt>
<wgt id='2317'>0.84936E+02</wgt>
<wgt id='2318'>0.84933E+02</wgt>
<wgt id='2319'>0.84294E+02</wgt>
<wgt id='2320'>0.84346E+02</wgt>
<wgt id='2321'>0.84246E+02</wgt>
<wgt id='2322'>0.84637E+02</wgt>
<wgt id='2323'>0.84423E+02</wgt>
<wgt id='2324'>0.84339E+02</wgt>
<wgt id='2325'>0.84673E+02</wgt>
<wgt id='2326'>0.84876E+02</wgt>
<wgt id='2327'>0.84695E+02</wgt>
<wgt id='2328'>0.84315E+02</wgt>
<wgt id='2329'>0.84562E+02</wgt>
<wgt id='2330'>0.84838E+02</wgt>
<wgt id='2331'>0.84743E+02</wgt>
<wgt id='2332'>0.84767E+02</wgt>
<wgt id='2333'>0.84783E+02</wgt>
<wgt id='2334'>0.84723E+02</wgt>
<wgt id='2335'>0.84772E+02</wgt>
<wgt id='2336'>0.84700E+02</wgt>
<wgt id='2337'>0.84672E+02</wgt>
<wgt id='2338'>0.84667E+02</wgt>
<wgt id='2339'>0.84652E+02</wgt>
<wgt id='2340'>0.84679E+02</wgt>
<wgt id='2341'>0.84690E+02</wgt>
<wgt id='2342'>0.84569E+02</wgt>
<wgt id='2343'>0.84576E+02</wgt>
<wgt id='2344'>0.84698E+02</wgt>
<wgt id='2345'>0.84729E+02</wgt>
<wgt id='2346'>0.84711E+02</wgt>
<wgt id='2347'>0.84644E+02</wgt>
<wgt id='2348'>0.84716E+02</wgt>
<wgt id='2349'>0.84646E+02</wgt>
<wgt id='2350'>0.84658E+02</wgt>
<wgt id='2351'>0.84765E+02</wgt>
<wgt id='2352'>0.84644E+02</wgt>
<wgt id='2353'>0.84645E+02</wgt>
<wgt id='2354'>0.84651E+02</wgt>
<wgt id='2355'>0.84662E+02</wgt>
<wgt id='2356'>0.84682E+02</wgt>
<wgt id='2357'>0.84636E+02</wgt>
<wgt id='2358'>0.84637E+02</wgt>
<wgt id='2359'>0.84665E+02</wgt>
<wgt id='2360'>0.84680E+02</wgt>
<wgt id='2361'>0.84689E+02</wgt>
<wgt id='2362'>0.84674E+02</wgt>
<wgt id='2363'>0.84684E+02</wgt>
<wgt id='2364'>0.84656E+02</wgt>
<wgt id='2365'>0.84672E+02</wgt>
<wgt id='2366'>0.84679E+02</wgt>
<wgt id='2367'>0.84638E+02</wgt>
<wgt id='2368'>0.84663E+02</wgt>
<wgt id='2369'>0.84635E+02</wgt>
<wgt id='2370'>0.84651E+02</wgt>
<wgt id='2371'>0.84665E+02</wgt>
<wgt id='2372'>0.84684E+02</wgt>
<wgt id='2373'>0.84660E+02</wgt>
<wgt id='2374'>0.84695E+02</wgt>
<wgt id='2375'>0.84678E+02</wgt>
<wgt id='2376'>0.84669E+02</wgt>
<wgt id='2377'>0.84666E+02</wgt>
<wgt id='2378'>0.84684E+02</wgt>
<wgt id='2379'>0.84652E+02</wgt>
<wgt id='2380'>0.84650E+02</wgt>
<wgt id='2381'>0.84655E+02</wgt>
<wgt id='2382'>0.84651E+02</wgt>
<wgt id='2383'>0.84671E+02</wgt>
<wgt id='2384'>0.84657E+02</wgt>
<wgt id='2385'>0.84679E+02</wgt>
<wgt id='2386'>0.84673E+02</wgt>
<wgt id='2387'>0.84661E+02</wgt>
<wgt id='2388'>0.84656E+02</wgt>
<wgt id='2389'>0.84670E+02</wgt>
<wgt id='2390'>0.84673E+02</wgt>
<wgt id='2391'>0.84662E+02</wgt>
<wgt id='2392'>0.84660E+02</wgt>
<wgt id='2393'>0.84667E+02</wgt>
<wgt id='2394'>0.84680E+02</wgt>
<wgt id='2395'>0.84667E+02</wgt>
<wgt id='2396'>0.84650E+02</wgt>
<wgt id='2397'>0.84652E+02</wgt>
<wgt id='2398'>0.84652E+02</wgt>
<wgt id='2399'>0.84674E+02</wgt>
<wgt id='2400'>0.84673E+02</wgt>
<wgt id='2401'>0.82360E+02</wgt>
<wgt id='2402'>0.87091E+02</wgt>
<wgt id='2500'>0.80805E+02</wgt>
<wgt id='2501'>0.85238E+02</wgt>
<wgt id='2600'>0.78620E+02</wgt>
<wgt id='2601'>0.78614E+02</wgt>
<wgt id='2602'>0.78576E+02</wgt>
<wgt id='2603'>0.78578E+02</wgt>
<wgt id='2604'>0.78744E+02</wgt>
<wgt id='2605'>0.78491E+02</wgt>
<wgt id='2606'>0.78359E+02</wgt>
<wgt id='2607'>0.78821E+02</wgt>
<wgt id='2608'>0.78483E+02</wgt>
<wgt id='2609'>0.78574E+02</wgt>
<wgt id='2610'>0.78579E+02</wgt>
<wgt id='2611'>0.78545E+02</wgt>
<wgt id='2612'>0.78996E+02</wgt>
<wgt id='2613'>0.78592E+02</wgt>
<wgt id='2614'>0.78622E+02</wgt>
<wgt id='2615'>0.78531E+02</wgt>
<wgt id='2616'>0.78593E+02</wgt>
<wgt id='2617'>0.78534E+02</wgt>
<wgt id='2618'>0.78451E+02</wgt>
<wgt id='2619'>0.78652E+02</wgt>
<wgt id='2620'>0.78664E+02</wgt>
<wgt id='2621'>0.78588E+02</wgt>
<wgt id='2622'>0.78619E+02</wgt>
<wgt id='2623'>0.78616E+02</wgt>
<wgt id='2624'>0.78629E+02</wgt>
<wgt id='2625'>0.78588E+02</wgt>
<wgt id='2626'>0.78618E+02</wgt>
<wgt id='2627'>0.78593E+02</wgt>
<wgt id='2628'>0.78629E+02</wgt>
<wgt id='2629'>0.78620E+02</wgt>
<wgt id='2630'>0.78604E+02</wgt>
<wgt id='2631'>0.78638E+02</wgt>
<wgt id='2632'>0.78612E+02</wgt>
<wgt id='2633'>0.78627E+02</wgt>
<wgt id='2634'>0.78638E+02</wgt>
<wgt id='2635'>0.78609E+02</wgt>
<wgt id='2636'>0.78621E+02</wgt>
<wgt id='2637'>0.78614E+02</wgt>
<wgt id='2638'>0.78610E+02</wgt>
<wgt id='2639'>0.78621E+02</wgt>
<wgt id='2640'>0.78625E+02</wgt>
<wgt id='2641'>0.78612E+02</wgt>
<wgt id='2642'>0.78616E+02</wgt>
<wgt id='2643'>0.78620E+02</wgt>
<wgt id='2644'>0.78621E+02</wgt>
<wgt id='2645'>0.78616E+02</wgt>
<wgt id='2646'>0.78613E+02</wgt>
<wgt id='2647'>0.78622E+02</wgt>
<wgt id='2648'>0.78621E+02</wgt>
<wgt id='2649'>0.78623E+02</wgt>
<wgt id='2650'>0.78620E+02</wgt>
<wgt id='2651'>0.77188E+02</wgt>
<wgt id='2652'>0.79971E+02</wgt>
<wgt id='2700'>0.75793E+02</wgt>
<wgt id='2701'>0.77188E+02</wgt>
<wgt id='2702'>0.77944E+02</wgt>
<wgt id='2703'>0.79205E+02</wgt>
<wgt id='2704'>0.79971E+02</wgt>
<wgt id='2705'>0.81245E+02</wgt>
<wgt id='2800'>0.79951E+02</wgt>
<wgt id='4000'>0.79133E+02</wgt>
<wgt id='4001'>0.79490E+02</wgt>
<wgt id='4002'>0.78962E+02</wgt>
<wgt id='4003'>0.79874E+02</wgt>
<wgt id='4004'>0.78200E+02</wgt>
<wgt id='4005'>0.78623E+02</wgt>
<wgt id='4006'>0.79515E+02</wgt>
<wgt id='4007'>0.80184E+02</wgt>
<wgt id='4008'>0.78071E+02</wgt>
<wgt id='4009'>0.79763E+02</wgt>
<wgt id='4010'>0.78672E+02</wgt>
<wgt id='4011'>0.79359E+02</wgt>
<wgt id='4012'>0.78900E+02</wgt>
<wgt id='4013'>0.79687E+02</wgt>
<wgt id='4014'>0.78612E+02</wgt>
<wgt id='4015'>0.78908E+02</wgt>
<wgt id='4016'>0.78974E+02</wgt>
<wgt id='4017'>0.79017E+02</wgt>
<wgt id='4018'>0.79288E+02</wgt>
<wgt id='4019'>0.79736E+02</wgt>
<wgt id='4020'>0.78157E+02</wgt>
<wgt id='4021'>0.79137E+02</wgt>
<wgt id='4022'>0.79091E+02</wgt>
<wgt id='4023'>0.78606E+02</wgt>
<wgt id='4024'>0.79520E+02</wgt>
<wgt id='4025'>0.79420E+02</wgt>
<wgt id='4026'>0.78363E+02</wgt>
<wgt id='4027'>0.78830E+02</wgt>
<wgt id='4028'>0.79387E+02</wgt>
<wgt id='4029'>0.77918E+02</wgt>
<wgt id='4030'>0.79657E+02</wgt>
<wgt id='4031'>0.79165E+02</wgt>
<wgt id='4032'>0.78335E+02</wgt>
<wgt id='4033'>0.78762E+02</wgt>
<wgt id='4034'>0.79328E+02</wgt>
<wgt id='4035'>0.79958E+02</wgt>
<wgt id='4036'>0.78450E+02</wgt>
<wgt id='4037'>0.79994E+02</wgt>
<wgt id='4038'>0.78313E+02</wgt>
<wgt id='4039'>0.80204E+02</wgt>
<wgt id='4040'>0.77961E+02</wgt>
<wgt id='4041'>0.78904E+02</wgt>
<wgt id='4042'>0.79272E+02</wgt>
<wgt id='4043'>0.78000E+02</wgt>
<wgt id='4044'>0.79771E+02</wgt>
<wgt id='4045'>0.81152E+02</wgt>
<wgt id='4046'>0.78168E+02</wgt>
<wgt id='4047'>0.77826E+02</wgt>
<wgt id='4048'>0.79591E+02</wgt>
<wgt id='4049'>0.78880E+02</wgt>
<wgt id='4050'>0.79284E+02</wgt>
<wgt id='4051'>0.80421E+02</wgt>
<wgt id='4052'>0.77854E+02</wgt>
<wgt id='4053'>0.80158E+02</wgt>
<wgt id='4054'>0.77915E+02</wgt>
<wgt id='4055'>0.79487E+02</wgt>
<wgt id='4056'>0.78649E+02</wgt>
<wgt id='4057'>0.78357E+02</wgt>
<wgt id='4058'>0.79662E+02</wgt>
<wgt id='4100'>0.80062E+02</wgt>
<wgt id='4101'>0.79628E+02</wgt>
<wgt id='4102'>0.78592E+02</wgt>
<wgt id='4103'>0.78019E+02</wgt>
<wgt id='4200'>0.75857E+02</wgt>
<wgt id='4201'>0.76014E+02</wgt>
<wgt id='4202'>0.75899E+02</wgt>
<wgt id='4203'>0.75270E+02</wgt>
<wgt id='4204'>0.76360E+02</wgt>
<wgt id='4205'>0.75840E+02</wgt>
<wgt id='4206'>0.75922E+02</wgt>
<wgt id='4207'>0.75539E+02</wgt>
<wgt id='4208'>0.76111E+02</wgt>
<wgt id='4209'>0.76014E+02</wgt>
<wgt id='4210'>0.75847E+02</wgt>
<wgt id='4211'>0.76851E+02</wgt>
<wgt id='4212'>0.75061E+02</wgt>
<wgt id='4213'>0.75969E+02</wgt>
<wgt id='4214'>0.75679E+02</wgt>
<wgt id='4215'>0.76043E+02</wgt>
<wgt id='4216'>0.75293E+02</wgt>
<wgt id='4217'>0.75457E+02</wgt>
<wgt id='4218'>0.76163E+02</wgt>
<wgt id='4219'>0.74770E+02</wgt>
<wgt id='4220'>0.76805E+02</wgt>
<wgt id='4221'>0.75265E+02</wgt>
<wgt id='4222'>0.76459E+02</wgt>
<wgt id='4223'>0.76686E+02</wgt>
<wgt id='4224'>0.75105E+02</wgt>
<wgt id='4225'>0.74271E+02</wgt>
<wgt id='4226'>0.77212E+02</wgt>
<wgt id='4227'>0.76232E+02</wgt>
<wgt id='4228'>0.75531E+02</wgt>
<wgt id='4229'>0.75569E+02</wgt>
<wgt id='4230'>0.76002E+02</wgt>
<wgt id='4231'>0.75745E+02</wgt>
<wgt id='4232'>0.75962E+02</wgt>
<wgt id='4233'>0.76138E+02</wgt>
<wgt id='4234'>0.75513E+02</wgt>
<wgt id='4235'>0.76156E+02</wgt>
<wgt id='4236'>0.75604E+02</wgt>
<wgt id='4237'>0.75723E+02</wgt>
<wgt id='4238'>0.75905E+02</wgt>
<wgt id='4239'>0.76935E+02</wgt>
<wgt id='4240'>0.74181E+02</wgt>
<wgt id='4241'>0.75316E+02</wgt>
<wgt id='4242'>0.76449E+02</wgt>
<wgt id='4243'>0.75836E+02</wgt>
<wgt id='4244'>0.75984E+02</wgt>
<wgt id='4245'>0.74865E+02</wgt>
<wgt id='4246'>0.76887E+02</wgt>
<wgt id='4247'>0.75599E+02</wgt>
<wgt id='4248'>0.76004E+02</wgt>
<wgt id='4249'>0.76905E+02</wgt>
<wgt id='4250'>0.74598E+02</wgt>
<wgt id='4251'>0.74618E+02</wgt>
<wgt id='4252'>0.76556E+02</wgt>
<wgt id='4253'>0.75351E+02</wgt>
<wgt id='4254'>0.76259E+02</wgt>
<wgt id='4255'>0.75805E+02</wgt>
<wgt id='4256'>0.75744E+02</wgt>
<wgt id='4257'>0.74425E+02</wgt>
<wgt id='4258'>0.76273E+02</wgt>
<wgt id='4300'>0.78325E+02</wgt>
<wgt id='4301'>0.77211E+02</wgt>
<wgt id='5000'>0.78855E+02</wgt>
<wgt id='5001'>0.78885E+02</wgt>
<wgt id='5002'>0.78815E+02</wgt>
<wgt id='5003'>0.78874E+02</wgt>
<wgt id='5004'>0.78837E+02</wgt>
<wgt id='5005'>0.78850E+02</wgt>
<wgt id='5006'>0.78862E+02</wgt>
<wgt id='5007'>0.78904E+02</wgt>
<wgt id='5008'>0.78815E+02</wgt>
<wgt id='5009'>0.78960E+02</wgt>
<wgt id='5010'>0.78746E+02</wgt>
<wgt id='5011'>0.79008E+02</wgt>
<wgt id='5012'>0.78706E+02</wgt>
<wgt id='5013'>0.78961E+02</wgt>
<wgt id='5014'>0.78779E+02</wgt>
<wgt id='5015'>0.78467E+02</wgt>
<wgt id='5016'>0.78467E+02</wgt>
<wgt id='5017'>0.79318E+02</wgt>
<wgt id='5018'>0.78541E+02</wgt>
<wgt id='5019'>0.79180E+02</wgt>
<wgt id='5020'>0.78410E+02</wgt>
<wgt id='5021'>0.78953E+02</wgt>
<wgt id='5022'>0.78701E+02</wgt>
<wgt id='5023'>0.78747E+02</wgt>
<wgt id='5024'>0.79112E+02</wgt>
<wgt id='5025'>0.78512E+02</wgt>
<wgt id='5026'>0.79240E+02</wgt>
<wgt id='5027'>0.78883E+02</wgt>
<wgt id='5028'>0.78778E+02</wgt>
<wgt id='5029'>0.79376E+02</wgt>
<wgt id='5030'>0.78557E+02</wgt>
<wgt id='5031'>0.78618E+02</wgt>
<wgt id='5032'>0.79564E+02</wgt>
<wgt id='5033'>0.78873E+02</wgt>
<wgt id='5034'>0.78835E+02</wgt>
<wgt id='5035'>0.78855E+02</wgt>
<wgt id='5036'>0.78857E+02</wgt>
<wgt id='5037'>0.78795E+02</wgt>
<wgt id='5038'>0.78889E+02</wgt>
<wgt id='5039'>0.79068E+02</wgt>
<wgt id='5040'>0.78330E+02</wgt>
<wgt id='5041'>0.79237E+02</wgt>
<wgt id='5042'>0.78474E+02</wgt>
<wgt id='5043'>0.78928E+02</wgt>
<wgt id='5044'>0.78838E+02</wgt>
<wgt id='5045'>0.78684E+02</wgt>
<wgt id='5046'>0.79041E+02</wgt>
<wgt id='5047'>0.78880E+02</wgt>
<wgt id='5048'>0.78743E+02</wgt>
<wgt id='5049'>0.78831E+02</wgt>
<wgt id='5050'>0.78896E+02</wgt>
<wgt id='5051'>0.78964E+02</wgt>
<wgt id='5052'>0.78742E+02</wgt>
<wgt id='5053'>0.78662E+02</wgt>
<wgt id='5054'>0.78969E+02</wgt>
<wgt id='5055'>0.78926E+02</wgt>
<wgt id='5056'>0.78865E+02</wgt>
<wgt id='5057'>0.78630E+02</wgt>
<wgt id='5058'>0.79011E+02</wgt>
<wgt id='5059'>0.78854E+02</wgt>
<wgt id='5060'>0.78866E+02</wgt>
<wgt id='5061'>0.79060E+02</wgt>
<wgt id='5062'>0.78843E+02</wgt>
<wgt id='5063'>0.79110E+02</wgt>
<wgt id='5064'>0.78790E+02</wgt>
<wgt id='5100'>0.78855E+02</wgt>
<wgt id='5101'>0.78892E+02</wgt>
<wgt id='6000'>0.79060E+02</wgt>
<wgt id='6001'>0.79272E+02</wgt>
<wgt id='6002'>0.79261E+02</wgt>
<wgt id='6003'>0.79066E+02</wgt>
<wgt id='6004'>0.78962E+02</wgt>
<wgt id='6005'>0.79006E+02</wgt>
<wgt id='6006'>0.79343E+02</wgt>
<wgt id='6007'>0.78989E+02</wgt>
<wgt id='6008'>0.78035E+02</wgt>
<wgt id='6009'>0.79379E+02</wgt>
<wgt id='6010'>0.78013E+02</wgt>
<wgt id='6011'>0.79028E+02</wgt>
<wgt id='6012'>0.79304E+02</wgt>
<wgt id='6013'>0.78878E+02</wgt>
<wgt id='6014'>0.79034E+02</wgt>
<wgt id='6015'>0.78570E+02</wgt>
<wgt id='6016'>0.79085E+02</wgt>
<wgt id='6017'>0.79123E+02</wgt>
<wgt id='6018'>0.78996E+02</wgt>
<wgt id='6019'>0.79110E+02</wgt>
<wgt id='6020'>0.79236E+02</wgt>
<wgt id='6021'>0.79160E+02</wgt>
<wgt id='6022'>0.79007E+02</wgt>
<wgt id='6023'>0.79107E+02</wgt>
<wgt id='6024'>0.79126E+02</wgt>
<wgt id='6025'>0.79266E+02</wgt>
<wgt id='6026'>0.79126E+02</wgt>
<wgt id='6027'>0.79099E+02</wgt>
<wgt id='6028'>0.78952E+02</wgt>
<wgt id='6029'>0.78936E+02</wgt>
<wgt id='6030'>0.79864E+02</wgt>
<wgt id='6031'>0.78920E+02</wgt>
<wgt id='6032'>0.79082E+02</wgt>
<wgt id='6033'>0.78947E+02</wgt>
<wgt id='6034'>0.79246E+02</wgt>
<wgt id='6035'>0.79099E+02</wgt>
<wgt id='6036'>0.79421E+02</wgt>
<wgt id='6037'>0.79078E+02</wgt>
<wgt id='6038'>0.79122E+02</wgt>
<wgt id='6039'>0.79171E+02</wgt>
<wgt id='6040'>0.79060E+02</wgt>
<wgt id='6041'>0.78002E+02</wgt>
<wgt id='6042'>0.79875E+02</wgt>
<wgt id='7000'>0.78632E+02</wgt>
<wgt id='7001'>0.78199E+02</wgt>
<wgt id='7002'>0.78363E+02</wgt>
<wgt id='7003'>0.78275E+02</wgt>
<wgt id='7004'>0.78288E+02</wgt>
<wgt id='7005'>0.78408E+02</wgt>
<wgt id='7006'>0.78154E+02</wgt>
<wgt id='7007'>0.78769E+02</wgt>
<wgt id='7008'>0.77807E+02</wgt>
<wgt id='7009'>0.78024E+02</wgt>
<wgt id='7010'>0.78549E+02</wgt>
<wgt id='7011'>0.78543E+02</wgt>
<wgt id='7012'>0.78022E+02</wgt>
<wgt id='7013'>0.78123E+02</wgt>
<wgt id='7014'>0.78432E+02</wgt>
<wgt id='7015'>0.78137E+02</wgt>
<wgt id='7016'>0.78208E+02</wgt>
<wgt id='7017'>0.78311E+02</wgt>
<wgt id='7018'>0.78251E+02</wgt>
<wgt id='7019'>0.78086E+02</wgt>
<wgt id='7020'>0.78483E+02</wgt>
<wgt id='7021'>0.78110E+02</wgt>
<wgt id='7022'>0.78417E+02</wgt>
<wgt id='7023'>0.78131E+02</wgt>
<wgt id='7024'>0.78442E+02</wgt>
<wgt id='7025'>0.77584E+02</wgt>
<wgt id='7026'>0.78882E+02</wgt>
<wgt id='7027'>0.78038E+02</wgt>
<wgt id='7028'>0.78581E+02</wgt>
<wgt id='8000'>0.79213E+02</wgt>
<wgt id='8001'>0.79201E+02</wgt>
<wgt id='8002'>0.79238E+02</wgt>
<wgt id='8003'>0.79217E+02</wgt>
<wgt id='8004'>0.79211E+02</wgt>
<wgt id='8005'>0.79056E+02</wgt>
<wgt id='8006'>0.79267E+02</wgt>
<wgt id='8007'>0.79321E+02</wgt>
<wgt id='8008'>0.79389E+02</wgt>
<wgt id='8009'>0.79546E+02</wgt>
<wgt id='8010'>0.79141E+02</wgt>
<wgt id='8011'>0.79214E+02</wgt>
<wgt id='8012'>0.78949E+02</wgt>
<wgt id='8013'>0.79083E+02</wgt>
<wgt id='8014'>0.79354E+02</wgt>
<wgt id='8015'>0.79166E+02</wgt>
<wgt id='8016'>0.79271E+02</wgt>
<wgt id='8017'>0.79239E+02</wgt>
<wgt id='8018'>0.79353E+02</wgt>
<wgt id='8019'>0.79328E+02</wgt>
<wgt id='8020'>0.79056E+02</wgt>
<wgt id='8021'>0.79178E+02</wgt>
<wgt id='8022'>0.78918E+02</wgt>
<wgt id='8023'>0.79210E+02</wgt>
<wgt id='8024'>0.79127E+02</wgt>
<wgt id='8025'>0.79322E+02</wgt>
<wgt id='8026'>0.79355E+02</wgt>
<wgt id='8027'>0.79200E+02</wgt>
<wgt id='8028'>0.79280E+02</wgt>
<wgt id='8029'>0.78800E+02</wgt>
<wgt id='3000'>0.81104E+02</wgt>
<wgt id='3001'>0.80348E+02</wgt>
<wgt id='3002'>0.80583E+02</wgt>
<wgt id='3003'>0.83573E+02</wgt>
<wgt id='3004'>0.81840E+02</wgt>
<wgt id='3005'>0.80644E+02</wgt>
<wgt id='3006'>0.83308E+02</wgt>
<wgt id='3007'>0.80473E+02</wgt>
<wgt id='3008'>0.80004E+02</wgt>
<wgt id='3009'>0.82655E+02</wgt>
<wgt id='3010'>0.82821E+02</wgt>
<wgt id='3011'>0.82847E+02</wgt>
<wgt id='3012'>0.81076E+02</wgt>
<wgt id='3013'>0.80190E+02</wgt>
<wgt id='3014'>0.79935E+02</wgt>
<wgt id='3015'>0.82445E+02</wgt>
<wgt id='3016'>0.82748E+02</wgt>
<wgt id='3017'>0.82725E+02</wgt>
<wgt id='3018'>0.80872E+02</wgt>
<wgt id='3019'>0.79649E+02</wgt>
<wgt id='3020'>0.80774E+02</wgt>
<wgt id='3021'>0.79442E+02</wgt>
<wgt id='3022'>0.79442E+02</wgt>
<wgt id='3023'>0.79632E+02</wgt>
<wgt id='3024'>0.79281E+02</wgt>
<wgt id='3025'>0.79628E+02</wgt>
<wgt id='3026'>0.80791E+02</wgt>
<wgt id='3027'>0.80076E+02</wgt>
<wgt id='3028'>0.80761E+02</wgt>
<wgt id='3029'>0.82476E+02</wgt>
<wgt id='3030'>0.83201E+02</wgt>
<wgt id='3031'>0.81981E+02</wgt>
<wgt id='3032'>0.82289E+02</wgt>
<wgt id='3033'>0.80193E+02</wgt>
<wgt id='3034'>0.80361E+02</wgt>
<wgt id='3035'>0.82568E+02</wgt>
<wgt id='3036'>0.80586E+02</wgt>
<wgt id='3037'>0.81410E+02</wgt>
<wgt id='3038'>0.80819E+02</wgt>
<wgt id='3039'>0.81835E+02</wgt>
<wgt id='3040'>0.80766E+02</wgt>
<wgt id='3041'>0.81450E+02</wgt>
<wgt id='3042'>0.80000E+02</wgt>
<wgt id='3043'>0.80896E+02</wgt>
<wgt id='3044'>0.80309E+02</wgt>
<wgt id='3045'>0.81197E+02</wgt>
<wgt id='3046'>0.81667E+02</wgt>
<wgt id='3047'>0.79187E+02</wgt>
<wgt id='3048'>0.78784E+02</wgt>
<wgt id='3049'>0.82351E+02</wgt>
<wgt id='3050'>0.82451E+02</wgt>
<wgt id='3051'>0.81314E+02</wgt>
<wgt id='3052'>0.79801E+02</wgt>
<wgt id='3053'>0.80840E+02</wgt>
<wgt id='3054'>0.81618E+02</wgt>
<wgt id='3055'>0.78998E+02</wgt>
<wgt id='3056'>0.80469E+02</wgt>
<wgt id='3057'>0.80570E+02</wgt>
<wgt id='3058'>0.79182E+02</wgt>
<wgt id='3059'>0.83204E+02</wgt>
<wgt id='3060'>0.81401E+02</wgt>
<wgt id='3061'>0.81230E+02</wgt>
<wgt id='3062'>0.80746E+02</wgt>
<wgt id='3063'>0.78787E+02</wgt>
<wgt id='3064'>0.80383E+02</wgt>
<wgt id='3065'>0.80389E+02</wgt>
<wgt id='3066'>0.81279E+02</wgt>
<wgt id='3067'>0.79224E+02</wgt>
<wgt id='3068'>0.82228E+02</wgt>
<wgt id='3069'>0.80325E+02</wgt>
<wgt id='3070'>0.79282E+02</wgt>
<wgt id='3071'>0.83026E+02</wgt>
<wgt id='3072'>0.82174E+02</wgt>
<wgt id='3073'>0.82199E+02</wgt>
<wgt id='3074'>0.82976E+02</wgt>
<wgt id='3075'>0.82541E+02</wgt>
<wgt id='3076'>0.83033E+02</wgt>
<wgt id='3077'>0.79823E+02</wgt>
<wgt id='3078'>0.82490E+02</wgt>
<wgt id='3079'>0.81036E+02</wgt>
<wgt id='3080'>0.80486E+02</wgt>
<wgt id='3081'>0.78894E+02</wgt>
<wgt id='3082'>0.82748E+02</wgt>
<wgt id='3083'>0.80970E+02</wgt>
<wgt id='3084'>0.81180E+02</wgt>
<wgt id='3085'>0.84268E+02</wgt>
<wgt id='3086'>0.78835E+02</wgt>
<wgt id='3087'>0.82269E+02</wgt>
<wgt id='3088'>0.82202E+02</wgt>
<wgt id='3089'>0.83838E+02</wgt>
<wgt id='3090'>0.80401E+02</wgt>
<wgt id='3091'>0.80098E+02</wgt>
<wgt id='3092'>0.82579E+02</wgt>
<wgt id='3093'>0.81936E+02</wgt>
<wgt id='3094'>0.80833E+02</wgt>
<wgt id='3095'>0.80580E+02</wgt>
<wgt id='3096'>0.80425E+02</wgt>
<wgt id='3097'>0.79554E+02</wgt>
<wgt id='3098'>0.81828E+02</wgt>
<wgt id='3099'>0.80315E+02</wgt>
<wgt id='3100'>0.80641E+02</wgt>
<wgt id='3200'>0.78615E+02</wgt>
<wgt id='3201'>0.78967E+02</wgt>
<wgt id='3202'>0.77821E+02</wgt>
<wgt id='3203'>0.78301E+02</wgt>
<wgt id='3204'>0.78155E+02</wgt>
<wgt id='3205'>0.79300E+02</wgt>
<wgt id='3206'>0.78847E+02</wgt>
<wgt id='3207'>0.79175E+02</wgt>
<wgt id='3208'>0.78997E+02</wgt>
<wgt id='3209'>0.78498E+02</wgt>
<wgt id='3210'>0.78560E+02</wgt>
<wgt id='3211'>0.79675E+02</wgt>
<wgt id='3212'>0.77573E+02</wgt>
<wgt id='3213'>0.78121E+02</wgt>
<wgt id='3214'>0.77682E+02</wgt>
<wgt id='3215'>0.78583E+02</wgt>
<wgt id='3216'>0.78959E+02</wgt>
<wgt id='3217'>0.78882E+02</wgt>
<wgt id='3218'>0.78587E+02</wgt>
<wgt id='3219'>0.78743E+02</wgt>
<wgt id='3220'>0.77862E+02</wgt>
<wgt id='3221'>0.79386E+02</wgt>
<wgt id='3222'>0.79357E+02</wgt>
<wgt id='3223'>0.78487E+02</wgt>
<wgt id='3224'>0.78256E+02</wgt>
<wgt id='3225'>0.78992E+02</wgt>
<wgt id='3226'>0.78734E+02</wgt>
<wgt id='3227'>0.77931E+02</wgt>
<wgt id='3228'>0.78003E+02</wgt>
<wgt id='3229'>0.78974E+02</wgt>
<wgt id='3230'>0.79159E+02</wgt>
<wgt id='3231'>0.78919E+02</wgt>
<wgt id='3232'>0.79087E+02</wgt>
<wgt id='3233'>0.78913E+02</wgt>
<wgt id='3234'>0.78966E+02</wgt>
<wgt id='3235'>0.77992E+02</wgt>
<wgt id='3236'>0.77962E+02</wgt>
<wgt id='3237'>0.78187E+02</wgt>
<wgt id='3238'>0.78654E+02</wgt>
<wgt id='3239'>0.78170E+02</wgt>
<wgt id='3240'>0.78907E+02</wgt>
<wgt id='3241'>0.79283E+02</wgt>
<wgt id='3242'>0.77875E+02</wgt>
<wgt id='3243'>0.77712E+02</wgt>
<wgt id='3244'>0.78353E+02</wgt>
<wgt id='3245'>0.79191E+02</wgt>
<wgt id='3246'>0.78280E+02</wgt>
<wgt id='3247'>0.78414E+02</wgt>
<wgt id='3248'>0.78319E+02</wgt>
<wgt id='3249'>0.78561E+02</wgt>
<wgt id='3250'>0.79068E+02</wgt>
<wgt id='3251'>0.78761E+02</wgt>
<wgt id='3252'>0.78641E+02</wgt>
<wgt id='3253'>0.78693E+02</wgt>
<wgt id='3254'>0.78650E+02</wgt>
<wgt id='3255'>0.78627E+02</wgt>
<wgt id='3256'>0.77664E+02</wgt>
<wgt id='3257'>0.78449E+02</wgt>
<wgt id='3258'>0.79156E+02</wgt>
<wgt id='3259'>0.78866E+02</wgt>
<wgt id='3260'>0.78546E+02</wgt>
<wgt id='3261'>0.79059E+02</wgt>
<wgt id='3262'>0.78101E+02</wgt>
<wgt id='3263'>0.78599E+02</wgt>
<wgt id='3264'>0.79061E+02</wgt>
<wgt id='3265'>0.79214E+02</wgt>
<wgt id='3266'>0.78187E+02</wgt>
<wgt id='3267'>0.78547E+02</wgt>
<wgt id='3268'>0.79654E+02</wgt>
<wgt id='3269'>0.78751E+02</wgt>
<wgt id='3270'>0.78696E+02</wgt>
<wgt id='3271'>0.78734E+02</wgt>
<wgt id='3272'>0.79162E+02</wgt>
<wgt id='3273'>0.78747E+02</wgt>
<wgt id='3274'>0.79163E+02</wgt>
<wgt id='3275'>0.78704E+02</wgt>
<wgt id='3276'>0.78590E+02</wgt>
<wgt id='3277'>0.77883E+02</wgt>
<wgt id='3278'>0.78524E+02</wgt>
<wgt id='3279'>0.79213E+02</wgt>
<wgt id='3280'>0.78421E+02</wgt>
<wgt id='3281'>0.78793E+02</wgt>
<wgt id='3282'>0.79087E+02</wgt>
<wgt id='3283'>0.78774E+02</wgt>
<wgt id='3284'>0.78623E+02</wgt>
<wgt id='3285'>0.77907E+02</wgt>
<wgt id='3286'>0.78748E+02</wgt>
<wgt id='3287'>0.78048E+02</wgt>
<wgt id='3288'>0.79185E+02</wgt>
<wgt id='3289'>0.79990E+02</wgt>
<wgt id='3290'>0.79867E+02</wgt>
<wgt id='3291'>0.77356E+02</wgt>
<wgt id='3292'>0.77190E+02</wgt>
<wgt id='3293'>0.78143E+02</wgt>
<wgt id='3294'>0.77304E+02</wgt>
<wgt id='3295'>0.77884E+02</wgt>
<wgt id='3296'>0.79853E+02</wgt>
<wgt id='3297'>0.78407E+02</wgt>
<wgt id='3298'>0.78864E+02</wgt>
<wgt id='3299'>0.78017E+02</wgt>
<wgt id='3300'>0.79061E+02</wgt>
<wgt id='3301'>0.77188E+02</wgt>
<wgt id='3302'>0.79971E+02</wgt>
<wgt id='3400'>0.78735E+02</wgt>
<wgt id='3401'>0.78767E+02</wgt>
<wgt id='3402'>0.78627E+02</wgt>
<wgt id='3403'>0.79687E+02</wgt>
<wgt id='3404'>0.80009E+02</wgt>
<wgt id='3405'>0.79463E+02</wgt>
<wgt id='3406'>0.78701E+02</wgt>
<wgt id='3407'>0.78213E+02</wgt>
<wgt id='3408'>0.80419E+02</wgt>
<wgt id='3409'>0.79748E+02</wgt>
<wgt id='3410'>0.78511E+02</wgt>
<wgt id='3411'>0.79241E+02</wgt>
<wgt id='3412'>0.79544E+02</wgt>
<wgt id='3413'>0.78591E+02</wgt>
<wgt id='3414'>0.78549E+02</wgt>
<wgt id='3415'>0.78821E+02</wgt>
<wgt id='3416'>0.78233E+02</wgt>
<wgt id='3417'>0.78989E+02</wgt>
<wgt id='3418'>0.78271E+02</wgt>
<wgt id='3419'>0.78411E+02</wgt>
<wgt id='3420'>0.79339E+02</wgt>
<wgt id='3421'>0.79164E+02</wgt>
<wgt id='3422'>0.79619E+02</wgt>
<wgt id='3423'>0.79292E+02</wgt>
<wgt id='3424'>0.79005E+02</wgt>
<wgt id='3425'>0.78412E+02</wgt>
<wgt id='3426'>0.79342E+02</wgt>
<wgt id='3427'>0.78832E+02</wgt>
<wgt id='3428'>0.79763E+02</wgt>
<wgt id='3429'>0.78164E+02</wgt>
<wgt id='3430'>0.79298E+02</wgt>
<wgt id='3431'>0.78861E+02</wgt>
<wgt id='3432'>0.78629E+02</wgt>
<wgt id='3433'>0.77228E+02</wgt>
<wgt id='3434'>0.78527E+02</wgt>
<wgt id='3435'>0.78655E+02</wgt>
<wgt id='3436'>0.78934E+02</wgt>
<wgt id='3437'>0.78722E+02</wgt>
<wgt id='3438'>0.77999E+02</wgt>
<wgt id='3439'>0.79467E+02</wgt>
<wgt id='3440'>0.78788E+02</wgt>
<wgt id='3441'>0.78684E+02</wgt>
<wgt id='3442'>0.77132E+02</wgt>
<wgt id='3443'>0.78460E+02</wgt>
<wgt id='3444'>0.78505E+02</wgt>
<wgt id='3445'>0.78296E+02</wgt>
<wgt id='3446'>0.79302E+02</wgt>
<wgt id='3447'>0.80470E+02</wgt>
<wgt id='3448'>0.79223E+02</wgt>
<wgt id='3449'>0.79286E+02</wgt>
<wgt id='3450'>0.78637E+02</wgt>
<wgt id='3451'>0.79944E+02</wgt>
<wgt id='3452'>0.78302E+02</wgt>
<wgt id='3453'>0.78284E+02</wgt>
<wgt id='3454'>0.77684E+02</wgt>
<wgt id='3455'>0.79865E+02</wgt>
<wgt id='3456'>0.79138E+02</wgt>
<wgt id='3457'>0.79495E+02</wgt>
<wgt id='3458'>0.78888E+02</wgt>
<wgt id='3459'>0.78406E+02</wgt>
<wgt id='3460'>0.78400E+02</wgt>
<wgt id='3461'>0.78190E+02</wgt>
<wgt id='3462'>0.78051E+02</wgt>
<wgt id='3463'>0.77861E+02</wgt>
<wgt id='3464'>0.79243E+02</wgt>
<wgt id='3465'>0.78311E+02</wgt>
<wgt id='3466'>0.78993E+02</wgt>
<wgt id='3467'>0.78528E+02</wgt>
<wgt id='3468'>0.77493E+02</wgt>
<wgt id='3469'>0.78914E+02</wgt>
<wgt id='3470'>0.78908E+02</wgt>
<wgt id='3471'>0.78763E+02</wgt>
<wgt id='3472'>0.78201E+02</wgt>
<wgt id='3473'>0.78896E+02</wgt>
<wgt id='3474'>0.78631E+02</wgt>
<wgt id='3475'>0.78436E+02</wgt>
<wgt id='3476'>0.79100E+02</wgt>
<wgt id='3477'>0.77794E+02</wgt>
<wgt id='3478'>0.78865E+02</wgt>
<wgt id='3479'>0.79910E+02</wgt>
<wgt id='3480'>0.78051E+02</wgt>
<wgt id='3481'>0.78963E+02</wgt>
<wgt id='3482'>0.78080E+02</wgt>
<wgt id='3483'>0.77158E+02</wgt>
<wgt id='3484'>0.78593E+02</wgt>
<wgt id='3485'>0.78513E+02</wgt>
<wgt id='3486'>0.77509E+02</wgt>
<wgt id='3487'>0.78915E+02</wgt>
<wgt id='3488'>0.79797E+02</wgt>
<wgt id='3489'>0.77933E+02</wgt>
<wgt id='3490'>0.78826E+02</wgt>
<wgt id='3491'>0.78715E+02</wgt>
<wgt id='3492'>0.79236E+02</wgt>
<wgt id='3493'>0.78043E+02</wgt>
<wgt id='3494'>0.77218E+02</wgt>
<wgt id='3495'>0.78853E+02</wgt>
<wgt id='3496'>0.77583E+02</wgt>
<wgt id='3497'>0.78067E+02</wgt>
<wgt id='3498'>0.78988E+02</wgt>
<wgt id='3499'>0.78885E+02</wgt>
<wgt id='3500'>0.79419E+02</wgt>
</rwgt>
</event>
<event>
     13 322200  8.11039E+01  4.55916E+01 -1.00000E+00  1.39324E-01
      21    -1     0     0   504   505  0.000000000E+00  0.000000000E+00  2.805722494E+03  2.805722494E+03  0.000000000E+00  0.00000E+00  9.000E+00
      21    -1     0     0   502   503  0.000000000E+00  0.000000000E+00 -9.637870354E+01  9.637870354E+01  0.000000000E+00  0.00000E+00  9.000E+00
       6     2     1     2   502     0 -1.608239868E+02 -3.995769463E+01  8.737365909E+01  2.544348595E+02  1.721684330E+02  0.00000E+00  9.000E+00
      -6     2     1     2     0   505  1.302809309E+02  7.380617616E+01  2.564036036E+03  2.573944175E+03  1.687819547E+02  0.00000E+00  9.000E+00
      21     1     1     2   504   503  3.054305595E+01 -3.384848154E+01  5.793409573E+01  7.372216368E+01  6.743495762E-07  0.00000E+00  9.000E+00
      24     2     3     3     0     0 -1.292685175E+02 -4.538001465E+01  1.263116647E+02  2.037700682E+02  8.244943115E+01  0.00000E+00  9.000E+00
       5     1     3     3   502     0 -3.155546928E+01  5.422320026E+00 -3.893800561E+01  5.066479129E+01  5.060000000E+00  0.00000E+00 -1.000E+00
     -24     2     4     4     0     0  1.233729287E+02  3.627853073E+01  1.218703551E+03  1.228061140E+03  7.974212696E+01  0.00000E+00  9.000E+00
      -5     1     4     4     0   505  6.908002123E+00  3.752764543E+01  1.345332485E+03  1.345883035E+03  5.060000000E+00  0.00000E+00  1.000E+00
     -11     1     6     6     0     0 -1.288682337E+01  9.691758867E+00 -7.752699373E+00  1.789147155E+01  5.100000000E-04  0.00000E+00  1.000E+00
      12     1     6     6     0     0 -1.163816942E+02 -5.507177352E+01  1.340643641E+02  1.858785966E+02  0.000000000E+00  0.00000E+00 -1.000E+00
      11     1     8     8     0     0 -4.603109150E+00  3.329882641E+00  2.845459002E+02  2.846026108E+02  5.100000000E-04  0.00000E+00 -1.000E+00
     -12     1     8     8     0     0  1.279760379E+02  3.294864809E+01  9.341576511E+02  9.434585295E+02  0.000000000E+00  0.00000E+00  1.000E+00
#rwgt            1           1   3892.8304182361949               10       17758           0
<rwgt>
<wgt id='1001'>0.81104E+02</wgt>
<wgt id='1002'>0.88939E+02</wgt>
<wgt id='1003'>0.69336E+02</wgt>
<wgt id='1004'>0.70413E+02</wgt>
<wgt id='1005'>0.75394E+02</wgt>
<wgt id='1006'>0.62651E+02</wgt>
<wgt id='1007'>0.94345E+02</wgt>
<wgt id='1008'>0.10660E+03</wgt>
<wgt id='1009'>0.76429E+02</wgt>
<wgt id='2000'>0.81104E+02</wgt>
<wgt id='2001'>0.81090E+02</wgt>
<wgt id='2002'>0.80330E+02</wgt>
<wgt id='2003'>0.81227E+02</wgt>
<wgt id='2004'>0.81041E+02</wgt>
<wgt id='2005'>0.80616E+02</wgt>
<wgt id='2006'>0.82815E+02</wgt>
<wgt id='2007'>0.80665E+02</wgt>
<wgt id='2008'>0.80182E+02</wgt>
<wgt id='2009'>0.81143E+02</wgt>
<wgt id='2010'>0.81442E+02</wgt>
<wgt id='2011'>0.81961E+02</wgt>
<wgt id='2012'>0.80833E+02</wgt>
<wgt id='2013'>0.81422E+02</wgt>
<wgt id='2014'>0.81859E+02</wgt>
<wgt id='2015'>0.81302E+02</wgt>
<wgt id='2016'>0.81890E+02</wgt>
<wgt id='2017'>0.81626E+02</wgt>
<wgt id='2018'>0.81513E+02</wgt>
<wgt id='2019'>0.80732E+02</wgt>
<wgt id='2020'>0.82022E+02</wgt>
<wgt id='2021'>0.80852E+02</wgt>
<wgt id='2022'>0.79788E+02</wgt>
<wgt id='2023'>0.82681E+02</wgt>
<wgt id='2024'>0.78160E+02</wgt>
<wgt id='2025'>0.82114E+02</wgt>
<wgt id='2026'>0.81738E+02</wgt>
<wgt id='2027'>0.79851E+02</wgt>
<wgt id='2028'>0.81995E+02</wgt>
<wgt id='2029'>0.79796E+02</wgt>
<wgt id='2030'>0.78357E+02</wgt>
<wgt id='2031'>0.82385E+02</wgt>
<wgt id='2032'>0.82183E+02</wgt>
<wgt id='2033'>0.81579E+02</wgt>
<wgt id='2034'>0.80273E+02</wgt>
<wgt id='2035'>0.81290E+02</wgt>
<wgt id='2036'>0.81705E+02</wgt>
<wgt id='2037'>0.80529E+02</wgt>
<wgt id='2038'>0.82003E+02</wgt>
<wgt id='2039'>0.81784E+02</wgt>
<wgt id='2040'>0.80998E+02</wgt>
<wgt id='2041'>0.80746E+02</wgt>
<wgt id='2042'>0.81765E+02</wgt>
<wgt id='2043'>0.81094E+02</wgt>
<wgt id='2044'>0.81322E+02</wgt>
<wgt id='2045'>0.81125E+02</wgt>
<wgt id='2046'>0.79813E+02</wgt>
<wgt id='2047'>0.81026E+02</wgt>
<wgt id='2048'>0.81300E+02</wgt>
<wgt id='2049'>0.80811E+02</wgt>
<wgt id='2050'>0.81321E+02</wgt>
<wgt id='2051'>0.81210E+02</wgt>
<wgt id='2052'>0.81152E+02</wgt>
<wgt id='2053'>0.81113E+02</wgt>
<wgt id='2054'>0.80970E+02</wgt>
<wgt id='2055'>0.80306E+02</wgt>
<wgt id='2056'>0.81302E+02</wgt>
<wgt id='2057'>0.81129E+02</wgt>
<wgt id='2058'>0.81185E+02</wgt>
<wgt id='2059'>0.81430E+02</wgt>
<wgt id='2060'>0.80940E+02</wgt>
<wgt id='2061'>0.81304E+02</wgt>
<wgt id='2062'>0.81018E+02</wgt>
<wgt id='2063'>0.81648E+02</wgt>
<wgt id='2064'>0.80958E+02</wgt>
<wgt id='2065'>0.81254E+02</wgt>
<wgt id='2066'>0.81023E+02</wgt>
<wgt id='2067'>0.80464E+02</wgt>
<wgt id='2068'>0.81792E+02</wgt>
<wgt id='2069'>0.80910E+02</wgt>
<wgt id='2070'>0.81604E+02</wgt>
<wgt id='2071'>0.80665E+02</wgt>
<wgt id='2072'>0.80563E+02</wgt>
<wgt id='2073'>0.81059E+02</wgt>
<wgt id='2074'>0.80691E+02</wgt>
<wgt id='2075'>0.81030E+02</wgt>
<wgt id='2076'>0.81351E+02</wgt>
<wgt id='2077'>0.81185E+02</wgt>
<wgt id='2078'>0.81180E+02</wgt>
<wgt id='2079'>0.81168E+02</wgt>
<wgt id='2080'>0.81009E+02</wgt>
<wgt id='2081'>0.80820E+02</wgt>
<wgt id='2082'>0.81146E+02</wgt>
<wgt id='2083'>0.81661E+02</wgt>
<wgt id='2084'>0.80980E+02</wgt>
<wgt id='2085'>0.81258E+02</wgt>
<wgt id='2086'>0.81042E+02</wgt>
<wgt id='2087'>0.81173E+02</wgt>
<wgt id='2088'>0.80949E+02</wgt>
<wgt id='2089'>0.80915E+02</wgt>
<wgt id='2090'>0.81137E+02</wgt>
<wgt id='2091'>0.81266E+02</wgt>
<wgt id='2092'>0.81277E+02</wgt>
<wgt id='2093'>0.80899E+02</wgt>
<wgt id='2094'>0.81104E+02</wgt>
<wgt id='2095'>0.81322E+02</wgt>
<wgt id='2096'>0.81090E+02</wgt>
<wgt id='2097'>0.81236E+02</wgt>
<wgt id='2098'>0.81213E+02</wgt>
<wgt id='2099'>0.81142E+02</wgt>
<wgt id='2100'>0.81104E+02</wgt>
<wgt id='2101'>0.76967E+02</wgt>
<wgt id='2102'>0.86835E+02</wgt>
<wgt id='2200'>0.81529E+02</wgt>
<wgt id='2201'>0.62727E+02</wgt>
<wgt id='2202'>0.67196E+02</wgt>
<wgt id='2203'>0.68468E+02</wgt>
<wgt id='2204'>0.73220E+02</wgt>
<wgt id='2205'>0.79262E+02</wgt>
<wgt id='2206'>0.83259E+02</wgt>
<wgt id='2207'>0.92140E+02</wgt>
<wgt id='2208'>0.96727E+02</wgt>
<wgt id='2300'>0.90878E+02</wgt>
<wgt id='2301'>0.90535E+02</wgt>
<wgt id='2302'>0.90255E+02</wgt>
<wgt id='2303'>0.90022E+02</wgt>
<wgt id='2304'>0.91084E+02</wgt>
<wgt id='2305'>0.90617E+02</wgt>
<wgt id='2306'>0.90742E+02</wgt>
<wgt id='2307'>0.91474E+02</wgt>
<wgt id='2308'>0.91325E+02</wgt>
<wgt id='2309'>0.91511E+02</wgt>
<wgt id='2310'>0.90809E+02</wgt>
<wgt id='2311'>0.90184E+02</wgt>
<wgt id='2312'>0.90526E+02</wgt>
<wgt id='2313'>0.92028E+02</wgt>
<wgt id='2314'>0.90369E+02</wgt>
<wgt id='2315'>0.90480E+02</wgt>
<wgt id='2316'>0.90325E+02</wgt>
<wgt id='2317'>0.90514E+02</wgt>
<wgt id='2318'>0.90706E+02</wgt>
<wgt id='2319'>0.92036E+02</wgt>
<wgt id='2320'>0.91980E+02</wgt>
<wgt id='2321'>0.91690E+02</wgt>
<wgt id='2322'>0.91152E+02</wgt>
<wgt id='2323'>0.91605E+02</wgt>
<wgt id='2324'>0.90942E+02</wgt>
<wgt id='2325'>0.91317E+02</wgt>
<wgt id='2326'>0.90444E+02</wgt>
<wgt id='2327'>0.90917E+02</wgt>
<wgt id='2328'>0.90846E+02</wgt>
<wgt id='2329'>0.88810E+02</wgt>
<wgt id='2330'>0.92664E+02</wgt>
<wgt id='2331'>0.92085E+02</wgt>
<wgt id='2332'>0.90805E+02</wgt>
<wgt id='2333'>0.90430E+02</wgt>
<wgt id='2334'>0.90598E+02</wgt>
<wgt id='2335'>0.91947E+02</wgt>
<wgt id='2336'>0.91296E+02</wgt>
<wgt id='2337'>0.90711E+02</wgt>
<wgt id='2338'>0.91548E+02</wgt>
<wgt id='2339'>0.92284E+02</wgt>
<wgt id='2340'>0.90626E+02</wgt>
<wgt id='2341'>0.91101E+02</wgt>
<wgt id='2342'>0.89808E+02</wgt>
<wgt id='2343'>0.89283E+02</wgt>
<wgt id='2344'>0.90681E+02</wgt>
<wgt id='2345'>0.91333E+02</wgt>
<wgt id='2346'>0.88794E+02</wgt>
<wgt id='2347'>0.90047E+02</wgt>
<wgt id='2348'>0.91661E+02</wgt>
<wgt id='2349'>0.90365E+02</wgt>
<wgt id='2350'>0.94270E+02</wgt>
<wgt id='2351'>0.88184E+02</wgt>
<wgt id='2352'>0.90885E+02</wgt>
<wgt id='2353'>0.91827E+02</wgt>
<wgt id='2354'>0.90924E+02</wgt>
<wgt id='2355'>0.89465E+02</wgt>
<wgt id='2356'>0.89500E+02</wgt>
<wgt id='2357'>0.91217E+02</wgt>
<wgt id='2358'>0.90423E+02</wgt>
<wgt id='2359'>0.90858E+02</wgt>
<wgt id='2360'>0.92041E+02</wgt>
<wgt id='2361'>0.90885E+02</wgt>
<wgt id='2362'>0.91245E+02</wgt>
<wgt id='2363'>0.89192E+02</wgt>
<wgt id='2364'>0.92577E+02</wgt>
<wgt id='2365'>0.90244E+02</wgt>
<wgt id='2366'>0.91599E+02</wgt>
<wgt id='2367'>0.91073E+02</wgt>
<wgt id='2368'>0.90625E+02</wgt>
<wgt id='2369'>0.90209E+02</wgt>
<wgt id='2370'>0.90339E+02</wgt>
<wgt id='2371'>0.91082E+02</wgt>
<wgt id='2372'>0.91411E+02</wgt>
<wgt id='2373'>0.91197E+02</wgt>
<wgt id='2374'>0.92728E+02</wgt>
<wgt id='2375'>0.91263E+02</wgt>
<wgt id='2376'>0.91836E+02</wgt>
<wgt id='2377'>0.91502E+02</wgt>
<wgt id='2378'>0.91354E+02</wgt>
<wgt id='2379'>0.89458E+02</wgt>
<wgt id='2380'>0.90143E+02</wgt>
<wgt id='2381'>0.90415E+02</wgt>
<wgt id='2382'>0.90048E+02</wgt>
<wgt id='2383'>0.91156E+02</wgt>
<wgt id='2384'>0.90887E+02</wgt>
<wgt id='2385'>0.91252E+02</wgt>
<wgt id='2386'>0.90170E+02</wgt>
<wgt id='2387'>0.90385E+02</wgt>
<wgt id='2388'>0.90873E+02</wgt>
<wgt id='2389'>0.90711E+02</wgt>
<wgt id='2390'>0.91070E+02</wgt>
<wgt id='2391'>0.90922E+02</wgt>
<wgt id='2392'>0.90849E+02</wgt>
<wgt id='2393'>0.90969E+02</wgt>
<wgt id='2394'>0.91291E+02</wgt>
<wgt id='2395'>0.90750E+02</wgt>
<wgt id='2396'>0.90911E+02</wgt>
<wgt id='2397'>0.90859E+02</wgt>
<wgt id='2398'>0.90659E+02</wgt>
<wgt id='2399'>0.90920E+02</wgt>
<wgt id='2400'>0.90935E+02</wgt>
<wgt id='2401'>0.85105E+02</wgt>
<wgt id='2402'>0.95643E+02</wgt>
<wgt id='2500'>0.89617E+02</wgt>
<wgt id='2501'>0.97579E+02</wgt>
<wgt id='2600'>0.80465E+02</wgt>
<wgt id='2601'>0.81141E+02</wgt>
<wgt id='2602'>0.79671E+02</wgt>
<wgt id='2603'>0.80096E+02</wgt>
<wgt id='2604'>0.79753E+02</wgt>
<wgt id='2605'>0.80353E+02</wgt>
<wgt id='2606'>0.80729E+02</wgt>
<wgt id='2607'>0.80099E+02</wgt>
<wgt id='2608'>0.80676E+02</wgt>
<wgt id='2609'>0.79799E+02</wgt>
<wgt id='2610'>0.80103E+02</wgt>
<wgt id='2611'>0.80495E+02</wgt>
<wgt id='2612'>0.80229E+02</wgt>
<wgt id='2613'>0.80796E+02</wgt>
<wgt id='2614'>0.80361E+02</wgt>
<wgt id='2615'>0.79753E+02</wgt>
<wgt id='2616'>0.80557E+02</wgt>
<wgt id='2617'>0.79960E+02</wgt>
<wgt id='2618'>0.80670E+02</wgt>
<wgt id='2619'>0.80618E+02</wgt>
<wgt id='2620'>0.80403E+02</wgt>
<wgt id='2621'>0.80906E+02</wgt>
<wgt id='2622'>0.81252E+02</wgt>
<wgt id='2623'>0.80516E+02</wgt>
<wgt id='2624'>0.80323E+02</wgt>
<wgt id='2625'>0.80632E+02</wgt>
<wgt id='2626'>0.80723E+02</wgt>
<wgt id='2627'>0.80692E+02</wgt>
<wgt id='2628'>0.80582E+02</wgt>
<wgt id='2629'>0.80579E+02</wgt>
<wgt id='2630'>0.80315E+02</wgt>
<wgt id='2631'>0.81074E+02</wgt>
<wgt id='2632'>0.79929E+02</wgt>
<wgt id='2633'>0.80584E+02</wgt>
<wgt id='2634'>0.81939E+02</wgt>
<wgt id='2635'>0.80665E+02</wgt>
<wgt id='2636'>0.79892E+02</wgt>
<wgt id='2637'>0.80618E+02</wgt>
<wgt id='2638'>0.82045E+02</wgt>
<wgt id='2639'>0.79957E+02</wgt>
<wgt id='2640'>0.81266E+02</wgt>
<wgt id='2641'>0.81965E+02</wgt>
<wgt id='2642'>0.80980E+02</wgt>
<wgt id='2643'>0.80872E+02</wgt>
<wgt id='2644'>0.80177E+02</wgt>
<wgt id='2645'>0.80613E+02</wgt>
<wgt id='2646'>0.81957E+02</wgt>
<wgt id='2647'>0.80215E+02</wgt>
<wgt id='2648'>0.79633E+02</wgt>
<wgt id='2649'>0.80100E+02</wgt>
<wgt id='2650'>0.80441E+02</wgt>
<wgt id='2651'>0.76494E+02</wgt>
<wgt id='2652'>0.84322E+02</wgt>
<wgt id='2700'>0.72657E+02</wgt>
<wgt id='2701'>0.76494E+02</wgt>
<wgt id='2702'>0.77863E+02</wgt>
<wgt id='2703'>0.82613E+02</wgt>
<wgt id='2704'>0.84322E+02</wgt>
<wgt id='2705'>0.87818E+02</wgt>
<wgt id='2800'>0.88838E+02</wgt>
<wgt id='4000'>0.10173E+03</wgt>
<wgt id='4001'>0.10067E+03</wgt>
<wgt id='4002'>0.10333E+03</wgt>
<wgt id='4003'>0.91092E+02</wgt>
<wgt id='4004'>0.11805E+03</wgt>
<wgt id='4005'>0.10025E+03</wgt>
<wgt id='4006'>0.10283E+03</wgt>
<wgt id='4007'>0.96805E+02</wgt>
<wgt id='4008'>0.10698E+03</wgt>
<wgt id='4009'>0.10547E+03</wgt>
<wgt id='4010'>0.98408E+02</wgt>
<wgt id='4011'>0.99145E+02</wgt>
<wgt id='4012'>0.10401E+03</wgt>
<wgt id='4013'>0.10085E+03</wgt>
<wgt id='4014'>0.10327E+03</wgt>
<wgt id='4015'>0.10087E+03</wgt>
<wgt id='4016'>0.10565E+03</wgt>
<wgt id='4017'>0.10301E+03</wgt>
<wgt id='4018'>0.10050E+03</wgt>
<wgt id='4019'>0.97188E+02</wgt>
<wgt id='4020'>0.11043E+03</wgt>
<wgt id='4021'>0.10448E+03</wgt>
<wgt id='4022'>0.97329E+02</wgt>
<wgt id='4023'>0.10759E+03</wgt>
<wgt id='4024'>0.96153E+02</wgt>
<wgt id='4025'>0.10231E+03</wgt>
<wgt id='4026'>0.99843E+02</wgt>
<wgt id='4027'>0.10957E+03</wgt>
<wgt id='4028'>0.95777E+02</wgt>
<wgt id='4029'>0.10818E+03</wgt>
<wgt id='4030'>0.10064E+03</wgt>
<wgt id='4031'>0.10003E+03</wgt>
<wgt id='4032'>0.11083E+03</wgt>
<wgt id='4033'>0.10549E+03</wgt>
<wgt id='4034'>0.99314E+02</wgt>
<wgt id='4035'>0.98443E+02</wgt>
<wgt id='4036'>0.10444E+03</wgt>
<wgt id='4037'>0.10292E+03</wgt>
<wgt id='4038'>0.99929E+02</wgt>
<wgt id='4039'>0.10509E+03</wgt>
<wgt id='4040'>0.99278E+02</wgt>
<wgt id='4041'>0.10239E+03</wgt>
<wgt id='4042'>0.10165E+03</wgt>
<wgt id='4043'>0.99766E+02</wgt>
<wgt id='4044'>0.10558E+03</wgt>
<wgt id='4045'>0.95367E+02</wgt>
<wgt id='4046'>0.10569E+03</wgt>
<wgt id='4047'>0.11006E+03</wgt>
<wgt id='4048'>0.99039E+02</wgt>
<wgt id='4049'>0.10154E+03</wgt>
<wgt id='4050'>0.10252E+03</wgt>
<wgt id='4051'>0.10001E+03</wgt>
<wgt id='4052'>0.10327E+03</wgt>
<wgt id='4053'>0.10476E+03</wgt>
<wgt id='4054'>0.99637E+02</wgt>
<wgt id='4055'>0.10343E+03</wgt>
<wgt id='4056'>0.99685E+02</wgt>
<wgt id='4057'>0.10066E+03</wgt>
<wgt id='4058'>0.10241E+03</wgt>
<wgt id='4100'>0.94174E+02</wgt>
<wgt id='4101'>0.97778E+02</wgt>
<wgt id='4102'>0.10581E+03</wgt>
<wgt id='4103'>0.10983E+03</wgt>
<wgt id='4200'>0.10226E+03</wgt>
<wgt id='4201'>0.10211E+03</wgt>
<wgt id='4202'>0.10268E+03</wgt>
<wgt id='4203'>0.10223E+03</wgt>
<wgt id='4204'>0.10205E+03</wgt>
<wgt id='4205'>0.10246E+03</wgt>
<wgt id='4206'>0.10213E+03</wgt>
<wgt id='4207'>0.10368E+03</wgt>
<wgt id='4208'>0.10253E+03</wgt>
<wgt id='4209'>0.10246E+03</wgt>
<wgt id='4210'>0.10234E+03</wgt>
<wgt id='4211'>0.10047E+03</wgt>
<wgt id='4212'>0.10371E+03</wgt>
<wgt id='4213'>0.10016E+03</wgt>
<wgt id='4214'>0.10587E+03</wgt>
<wgt id='4215'>0.10325E+03</wgt>
<wgt id='4216'>0.10234E+03</wgt>
<wgt id='4217'>0.10329E+03</wgt>
<wgt id='4218'>0.10140E+03</wgt>
<wgt id='4219'>0.10721E+03</wgt>
<wgt id='4220'>0.98357E+02</wgt>
<wgt id='4221'>0.10205E+03</wgt>
<wgt id='4222'>0.10287E+03</wgt>
<wgt id='4223'>0.10390E+03</wgt>
<wgt id='4224'>0.99563E+02</wgt>
<wgt id='4225'>0.10564E+03</wgt>
<wgt id='4226'>0.10085E+03</wgt>
<wgt id='4227'>0.10346E+03</wgt>
<wgt id='4228'>0.10126E+03</wgt>
<wgt id='4229'>0.10347E+03</wgt>
<wgt id='4230'>0.10273E+03</wgt>
<wgt id='4231'>0.10743E+03</wgt>
<wgt id='4232'>0.95721E+02</wgt>
<wgt id='4233'>0.10956E+03</wgt>
<wgt id='4234'>0.95285E+02</wgt>
<wgt id='4235'>0.10900E+03</wgt>
<wgt id='4236'>0.96133E+02</wgt>
<wgt id='4237'>0.10563E+03</wgt>
<wgt id='4238'>0.98216E+02</wgt>
<wgt id='4239'>0.10617E+03</wgt>
<wgt id='4240'>0.10354E+03</wgt>
<wgt id='4241'>0.10375E+03</wgt>
<wgt id='4242'>0.10093E+03</wgt>
<wgt id='4243'>0.10502E+03</wgt>
<wgt id='4244'>0.98479E+02</wgt>
<wgt id='4245'>0.10254E+03</wgt>
<wgt id='4246'>0.10106E+03</wgt>
<wgt id='4247'>0.95919E+02</wgt>
<wgt id='4248'>0.10801E+03</wgt>
<wgt id='4249'>0.99698E+02</wgt>
<wgt id='4250'>0.10597E+03</wgt>
<wgt id='4251'>0.11464E+03</wgt>
<wgt id='4252'>0.95640E+02</wgt>
<wgt id='4253'>0.11365E+03</wgt>
<wgt id='4254'>0.91256E+02</wgt>
<wgt id='4255'>0.10745E+03</wgt>
<wgt id='4256'>0.10065E+03</wgt>
<wgt id='4257'>0.10024E+03</wgt>
<wgt id='4258'>0.10284E+03</wgt>
<wgt id='4300'>0.99217E+02</wgt>
<wgt id='4301'>0.10654E+03</wgt>
<wgt id='5000'>0.95245E+02</wgt>
<wgt id='5001'>0.95300E+02</wgt>
<wgt id='5002'>0.95174E+02</wgt>
<wgt id='5003'>0.95272E+02</wgt>
<wgt id='5004'>0.95220E+02</wgt>
<wgt id='5005'>0.95245E+02</wgt>
<wgt id='5006'>0.95244E+02</wgt>
<wgt id='5007'>0.95378E+02</wgt>
<wgt id='5008'>0.95137E+02</wgt>
<wgt id='5009'>0.95372E+02</wgt>
<wgt id='5010'>0.95114E+02</wgt>
<wgt id='5011'>0.95651E+02</wgt>
<wgt id='5012'>0.94854E+02</wgt>
<wgt id='5013'>0.95454E+02</wgt>
<wgt id='5014'>0.95097E+02</wgt>
<wgt id='5015'>0.94735E+02</wgt>
<wgt id='5016'>0.94735E+02</wgt>
<wgt id='5017'>0.95513E+02</wgt>
<wgt id='5018'>0.95067E+02</wgt>
<wgt id='5019'>0.95686E+02</wgt>
<wgt id='5020'>0.94638E+02</wgt>
<wgt id='5021'>0.95293E+02</wgt>
<wgt id='5022'>0.95169E+02</wgt>
<wgt id='5023'>0.95221E+02</wgt>
<wgt id='5024'>0.95300E+02</wgt>
<wgt id='5025'>0.95156E+02</wgt>
<wgt id='5026'>0.95336E+02</wgt>
<wgt id='5027'>0.95373E+02</wgt>
<wgt id='5028'>0.94902E+02</wgt>
<wgt id='5029'>0.97451E+02</wgt>
<wgt id='5030'>0.94014E+02</wgt>
<wgt id='5031'>0.93972E+02</wgt>
<wgt id='5032'>0.99199E+02</wgt>
<wgt id='5033'>0.94846E+02</wgt>
<wgt id='5034'>0.95674E+02</wgt>
<wgt id='5035'>0.95317E+02</wgt>
<wgt id='5036'>0.95150E+02</wgt>
<wgt id='5037'>0.94295E+02</wgt>
<wgt id='5038'>0.95782E+02</wgt>
<wgt id='5039'>0.95180E+02</wgt>
<wgt id='5040'>0.95457E+02</wgt>
<wgt id='5041'>0.91822E+02</wgt>
<wgt id='5042'>0.99381E+02</wgt>
<wgt id='5043'>0.95415E+02</wgt>
<wgt id='5044'>0.95157E+02</wgt>
<wgt id='5045'>0.99019E+02</wgt>
<wgt id='5046'>0.87536E+02</wgt>
<wgt id='5047'>0.95718E+02</wgt>
<wgt id='5048'>0.93171E+02</wgt>
<wgt id='5049'>0.95019E+02</wgt>
<wgt id='5050'>0.95890E+02</wgt>
<wgt id='5051'>0.95915E+02</wgt>
<wgt id='5052'>0.94829E+02</wgt>
<wgt id='5053'>0.98565E+02</wgt>
<wgt id='5054'>0.93652E+02</wgt>
<wgt id='5055'>0.94934E+02</wgt>
<wgt id='5056'>0.96165E+02</wgt>
<wgt id='5057'>0.94259E+02</wgt>
<wgt id='5058'>0.95936E+02</wgt>
<wgt id='5059'>0.94370E+02</wgt>
<wgt id='5060'>0.95705E+02</wgt>
<wgt id='5061'>0.95771E+02</wgt>
<wgt id='5062'>0.95931E+02</wgt>
<wgt id='5063'>0.95105E+02</wgt>
<wgt id='5064'>0.96245E+02</wgt>
<wgt id='5100'>0.95245E+02</wgt>
<wgt id='5101'>0.95007E+02</wgt>
<wgt id='6000'>0.10218E+03</wgt>
<wgt id='6001'>0.10566E+03</wgt>
<wgt id='6002'>0.10038E+03</wgt>
<wgt id='6003'>0.10089E+03</wgt>
<wgt id='6004'>0.10391E+03</wgt>
<wgt id='6005'>0.98688E+02</wgt>
<wgt id='6006'>0.10622E+03</wgt>
<wgt id='6007'>0.10099E+03</wgt>
<wgt id='6008'>0.10398E+03</wgt>
<wgt id='6009'>0.10482E+03</wgt>
<wgt id='6010'>0.10399E+03</wgt>
<wgt id='6011'>0.10325E+03</wgt>
<wgt id='6012'>0.10374E+03</wgt>
<wgt id='6013'>0.10096E+03</wgt>
<wgt id='6014'>0.10180E+03</wgt>
<wgt id='6015'>0.10140E+03</wgt>
<wgt id='6016'>0.10288E+03</wgt>
<wgt id='6017'>0.10262E+03</wgt>
<wgt id='6018'>0.10141E+03</wgt>
<wgt id='6019'>0.10364E+03</wgt>
<wgt id='6020'>0.10280E+03</wgt>
<wgt id='6021'>0.10277E+03</wgt>
<wgt id='6022'>0.10765E+03</wgt>
<wgt id='6023'>0.10282E+03</wgt>
<wgt id='6024'>0.10182E+03</wgt>
<wgt id='6025'>0.10330E+03</wgt>
<wgt id='6026'>0.10229E+03</wgt>
<wgt id='6027'>0.10205E+03</wgt>
<wgt id='6028'>0.10241E+03</wgt>
<wgt id='6029'>0.10302E+03</wgt>
<wgt id='6030'>0.10185E+03</wgt>
<wgt id='6031'>0.10008E+03</wgt>
<wgt id='6032'>0.10239E+03</wgt>
<wgt id='6033'>0.10217E+03</wgt>
<wgt id='6034'>0.10426E+03</wgt>
<wgt id='6035'>0.10212E+03</wgt>
<wgt id='6036'>0.10055E+03</wgt>
<wgt id='6037'>0.10204E+03</wgt>
<wgt id='6038'>0.10215E+03</wgt>
<wgt id='6039'>0.10292E+03</wgt>
<wgt id='6040'>0.10153E+03</wgt>
<wgt id='6041'>0.97577E+02</wgt>
<wgt id='6042'>0.10634E+03</wgt>
<wgt id='7000'>0.62805E+02</wgt>
<wgt id='7001'>0.62211E+02</wgt>
<wgt id='7002'>0.62329E+02</wgt>
<wgt id='7003'>0.62239E+02</wgt>
<wgt id='7004'>0.62300E+02</wgt>
<wgt id='7005'>0.62182E+02</wgt>
<wgt id='7006'>0.62358E+02</wgt>
<wgt id='7007'>0.62530E+02</wgt>
<wgt id='7008'>0.62017E+02</wgt>
<wgt id='7009'>0.62079E+02</wgt>
<wgt id='7010'>0.62473E+02</wgt>
<wgt id='7011'>0.62454E+02</wgt>
<wgt id='7012'>0.62100E+02</wgt>
<wgt id='7013'>0.62644E+02</wgt>
<wgt id='7014'>0.61897E+02</wgt>
<wgt id='7015'>0.62582E+02</wgt>
<wgt id='7016'>0.61850E+02</wgt>
<wgt id='7017'>0.61775E+02</wgt>
<wgt id='7018'>0.62832E+02</wgt>
<wgt id='7019'>0.63743E+02</wgt>
<wgt id='7020'>0.60913E+02</wgt>
<wgt id='7021'>0.64889E+02</wgt>
<wgt id='7022'>0.60149E+02</wgt>
<wgt id='7023'>0.60558E+02</wgt>
<wgt id='7024'>0.64069E+02</wgt>
<wgt id='7025'>0.60464E+02</wgt>
<wgt id='7026'>0.64150E+02</wgt>
<wgt id='7027'>0.61507E+02</wgt>
<wgt id='7028'>0.63151E+02</wgt>
<wgt id='8000'>0.70606E+02</wgt>
<wgt id='8001'>0.70606E+02</wgt>
<wgt id='8002'>0.70626E+02</wgt>
<wgt id='8003'>0.70601E+02</wgt>
<wgt id='8004'>0.70604E+02</wgt>
<wgt id='8005'>0.70487E+02</wgt>
<wgt id='8006'>0.70730E+02</wgt>
<wgt id='8007'>0.70797E+02</wgt>
<wgt id='8008'>0.70687E+02</wgt>
<wgt id='8009'>0.70832E+02</wgt>
<wgt id='8010'>0.70505E+02</wgt>
<wgt id='8011'>0.70742E+02</wgt>
<wgt id='8012'>0.70392E+02</wgt>
<wgt id='8013'>0.70470E+02</wgt>
<wgt id='8014'>0.70797E+02</wgt>
<wgt id='8015'>0.70545E+02</wgt>
<wgt id='8016'>0.70897E+02</wgt>
<wgt id='8017'>0.70926E+02</wgt>
<wgt id='8018'>0.71168E+02</wgt>
<wgt id='8019'>0.69790E+02</wgt>
<wgt id='8020'>0.71960E+02</wgt>
<wgt id='8021'>0.70194E+02</wgt>
<wgt id='8022'>0.73006E+02</wgt>
<wgt id='8023'>0.69758E+02</wgt>
<wgt id='8024'>0.69110E+02</wgt>
<wgt id='8025'>0.68960E+02</wgt>
<wgt id='8026'>0.70227E+02</wgt>
<wgt id='8027'>0.71099E+02</wgt>
<wgt id='8028'>0.70634E+02</wgt>
<wgt id='8029'>0.78270E+02</wgt>
<wgt id='3000'>0.81104E+02</wgt>
<wgt id='3001'>0.77640E+02</wgt>
<wgt id='3002'>0.81265E+02</wgt>
<wgt id='3003'>0.83548E+02</wgt>
<wgt id='3004'>0.82522E+02</wgt>
<wgt id='3005'>0.72904E+02</wgt>
<wgt id='3006'>0.87845E+02</wgt>
<wgt id='3007'>0.82004E+02</wgt>
<wgt id='3008'>0.78914E+02</wgt>
<wgt id='3009'>0.92780E+02</wgt>
<wgt id='3010'>0.83812E+02</wgt>
<wgt id='3011'>0.64881E+02</wgt>
<wgt id='3012'>0.84507E+02</wgt>
<wgt id='3013'>0.76060E+02</wgt>
<wgt id='3014'>0.82055E+02</wgt>
<wgt id='3015'>0.70499E+02</wgt>
<wgt id='3016'>0.81442E+02</wgt>
<wgt id='3017'>0.78184E+02</wgt>
<wgt id='3018'>0.77738E+02</wgt>
<wgt id='3019'>0.72933E+02</wgt>
<wgt id='3020'>0.72927E+02</wgt>
<wgt id='3021'>0.79162E+02</wgt>
<wgt id='3022'>0.77642E+02</wgt>
<wgt id='3023'>0.71568E+02</wgt>
<wgt id='3024'>0.82745E+02</wgt>
<wgt id='3025'>0.84946E+02</wgt>
<wgt id='3026'>0.81733E+02</wgt>
<wgt id='3027'>0.85431E+02</wgt>
<wgt id='3028'>0.88558E+02</wgt>
<wgt id='3029'>0.78201E+02</wgt>
<wgt id='3030'>0.87338E+02</wgt>
<wgt id='3031'>0.87494E+02</wgt>
<wgt id='3032'>0.66873E+02</wgt>
<wgt id='3033'>0.74096E+02</wgt>
<wgt id='3034'>0.86474E+02</wgt>
<wgt id='3035'>0.79626E+02</wgt>
<wgt id='3036'>0.83037E+02</wgt>
<wgt id='3037'>0.74455E+02</wgt>
<wgt id='3038'>0.95373E+02</wgt>
<wgt id='3039'>0.85897E+02</wgt>
<wgt id='3040'>0.92642E+02</wgt>
<wgt id='3041'>0.86280E+02</wgt>
<wgt id='3042'>0.94271E+02</wgt>
<wgt id='3043'>0.84011E+02</wgt>
<wgt id='3044'>0.83620E+02</wgt>
<wgt id='3045'>0.74023E+02</wgt>
<wgt id='3046'>0.84975E+02</wgt>
<wgt id='3047'>0.71322E+02</wgt>
<wgt id='3048'>0.83640E+02</wgt>
<wgt id='3049'>0.73318E+02</wgt>
<wgt id='3050'>0.93632E+02</wgt>
<wgt id='3051'>0.69676E+02</wgt>
<wgt id='3052'>0.92718E+02</wgt>
<wgt id='3053'>0.77081E+02</wgt>
<wgt id='3054'>0.81733E+02</wgt>
<wgt id='3055'>0.74171E+02</wgt>
<wgt id='3056'>0.88045E+02</wgt>
<wgt id='3057'>0.74504E+02</wgt>
<wgt id='3058'>0.92672E+02</wgt>
<wgt id='3059'>0.88344E+02</wgt>
<wgt id='3060'>0.74097E+02</wgt>
<wgt id='3061'>0.84174E+02</wgt>
<wgt id='3062'>0.85506E+02</wgt>
<wgt id='3063'>0.72265E+02</wgt>
<wgt id='3064'>0.78039E+02</wgt>
<wgt id='3065'>0.77649E+02</wgt>
<wgt id='3066'>0.86917E+02</wgt>
<wgt id='3067'>0.78093E+02</wgt>
<wgt id='3068'>0.82099E+02</wgt>
<wgt id='3069'>0.74611E+02</wgt>
<wgt id='3070'>0.79862E+02</wgt>
<wgt id='3071'>0.74553E+02</wgt>
<wgt id='3072'>0.70614E+02</wgt>
<wgt id='3073'>0.76659E+02</wgt>
<wgt id='3074'>0.78346E+02</wgt>
<wgt id='3075'>0.79811E+02</wgt>
<wgt id='3076'>0.76938E+02</wgt>
<wgt id='3077'>0.81757E+02</wgt>
<wgt id='3078'>0.66185E+02</wgt>
<wgt id='3079'>0.67908E+02</wgt>
<wgt id='3080'>0.83299E+02</wgt>
<wgt id='3081'>0.82728E+02</wgt>
<wgt id='3082'>0.81442E+02</wgt>
<wgt id='3083'>0.82566E+02</wgt>
<wgt id='3084'>0.84094E+02</wgt>
<wgt id='3085'>0.88231E+02</wgt>
<wgt id='3086'>0.89714E+02</wgt>
<wgt id='3087'>0.89737E+02</wgt>
<wgt id='3088'>0.84552E+02</wgt>
<wgt id='3089'>0.95317E+02</wgt>
<wgt id='3090'>0.85958E+02</wgt>
<wgt id='3091'>0.90411E+02</wgt>
<wgt id='3092'>0.76194E+02</wgt>
<wgt id='3093'>0.82147E+02</wgt>
<wgt id='3094'>0.75075E+02</wgt>
<wgt id='3095'>0.81939E+02</wgt>
<wgt id='3096'>0.88816E+02</wgt>
<wgt id='3097'>0.88228E+02</wgt>
<wgt id='3098'>0.77736E+02</wgt>
<wgt id='3099'>0.78990E+02</wgt>
<wgt id='3100'>0.80113E+02</wgt>
<wgt id='3200'>0.80197E+02</wgt>
<wgt id='3201'>0.85228E+02</wgt>
<wgt id='3202'>0.81979E+02</wgt>
<wgt id='3203'>0.75844E+02</wgt>
<wgt id='3204'>0.80485E+02</wgt>
<wgt id='3205'>0.83234E+02</wgt>
<wgt id='3206'>0.76677E+02</wgt>
<wgt id='3207'>0.79308E+02</wgt>
<wgt id='3208'>0.80697E+02</wgt>
<wgt id='3209'>0.82739E+02</wgt>
<wgt id='3210'>0.81597E+02</wgt>
<wgt id='3211'>0.74512E+02</wgt>
<wgt id='3212'>0.86315E+02</wgt>
<wgt id='3213'>0.70664E+02</wgt>
<wgt id='3214'>0.80982E+02</wgt>
<wgt id='3215'>0.78250E+02</wgt>
<wgt id='3216'>0.82894E+02</wgt>
<wgt id='3217'>0.73404E+02</wgt>
<wgt id='3218'>0.80858E+02</wgt>
<wgt id='3219'>0.82230E+02</wgt>
<wgt id='3220'>0.88113E+02</wgt>
<wgt id='3221'>0.75330E+02</wgt>
<wgt id='3222'>0.85233E+02</wgt>
<wgt id='3223'>0.79255E+02</wgt>
<wgt id='3224'>0.76804E+02</wgt>
<wgt id='3225'>0.80438E+02</wgt>
<wgt id='3226'>0.80140E+02</wgt>
<wgt id='3227'>0.81725E+02</wgt>
<wgt id='3228'>0.74683E+02</wgt>
<wgt id='3229'>0.80580E+02</wgt>
<wgt id='3230'>0.73345E+02</wgt>
<wgt id='3231'>0.78523E+02</wgt>
<wgt id='3232'>0.82838E+02</wgt>
<wgt id='3233'>0.82336E+02</wgt>
<wgt id='3234'>0.78867E+02</wgt>
<wgt id='3235'>0.83226E+02</wgt>
<wgt id='3236'>0.83542E+02</wgt>
<wgt id='3237'>0.86057E+02</wgt>
<wgt id='3238'>0.82953E+02</wgt>
<wgt id='3239'>0.82585E+02</wgt>
<wgt id='3240'>0.79372E+02</wgt>
<wgt id='3241'>0.85654E+02</wgt>
<wgt id='3242'>0.87164E+02</wgt>
<wgt id='3243'>0.75922E+02</wgt>
<wgt id='3244'>0.73070E+02</wgt>
<wgt id='3245'>0.88047E+02</wgt>
<wgt id='3246'>0.73621E+02</wgt>
<wgt id='3247'>0.89929E+02</wgt>
<wgt id='3248'>0.75687E+02</wgt>
<wgt id='3249'>0.78426E+02</wgt>
<wgt id='3250'>0.82445E+02</wgt>
<wgt id='3251'>0.80969E+02</wgt>
<wgt id='3252'>0.82261E+02</wgt>
<wgt id='3253'>0.78382E+02</wgt>
<wgt id='3254'>0.82876E+02</wgt>
<wgt id='3255'>0.80026E+02</wgt>
<wgt id='3256'>0.82994E+02</wgt>
<wgt id='3257'>0.81976E+02</wgt>
<wgt id='3258'>0.79083E+02</wgt>
<wgt id='3259'>0.78830E+02</wgt>
<wgt id='3260'>0.80265E+02</wgt>
<wgt id='3261'>0.82846E+02</wgt>
<wgt id='3262'>0.78837E+02</wgt>
<wgt id='3263'>0.88574E+02</wgt>
<wgt id='3264'>0.87893E+02</wgt>
<wgt id='3265'>0.79000E+02</wgt>
<wgt id='3266'>0.86057E+02</wgt>
<wgt id='3267'>0.76680E+02</wgt>
<wgt id='3268'>0.73937E+02</wgt>
<wgt id='3269'>0.77399E+02</wgt>
<wgt id='3270'>0.73502E+02</wgt>
<wgt id='3271'>0.73188E+02</wgt>
<wgt id='3272'>0.83718E+02</wgt>
<wgt id='3273'>0.74865E+02</wgt>
<wgt id='3274'>0.82295E+02</wgt>
<wgt id='3275'>0.84869E+02</wgt>
<wgt id='3276'>0.73152E+02</wgt>
<wgt id='3277'>0.75038E+02</wgt>
<wgt id='3278'>0.81966E+02</wgt>
<wgt id='3279'>0.78581E+02</wgt>
<wgt id='3280'>0.82572E+02</wgt>
<wgt id='3281'>0.82455E+02</wgt>
<wgt id='3282'>0.79544E+02</wgt>
<wgt id='3283'>0.76219E+02</wgt>
<wgt id='3284'>0.84126E+02</wgt>
<wgt id='3285'>0.79766E+02</wgt>
<wgt id='3286'>0.77524E+02</wgt>
<wgt id='3287'>0.74663E+02</wgt>
<wgt id='3288'>0.77841E+02</wgt>
<wgt id='3289'>0.75739E+02</wgt>
<wgt id='3290'>0.77945E+02</wgt>
<wgt id='3291'>0.75637E+02</wgt>
<wgt id='3292'>0.83413E+02</wgt>
<wgt id='3293'>0.86382E+02</wgt>
<wgt id='3294'>0.78929E+02</wgt>
<wgt id='3295'>0.80518E+02</wgt>
<wgt id='3296'>0.82034E+02</wgt>
<wgt id='3297'>0.75233E+02</wgt>
<wgt id='3298'>0.80819E+02</wgt>
<wgt id='3299'>0.81648E+02</wgt>
<wgt id='3300'>0.82316E+02</wgt>
<wgt id='3301'>0.76494E+02</wgt>
<wgt id='3302'>0.84322E+02</wgt>
<wgt id='3400'>0.85000E+02</wgt>
<wgt id='3401'>0.92731E+02</wgt>
<wgt id='3402'>0.81440E+02</wgt>
<wgt id='3403'>0.81665E+02</wgt>
<wgt id='3404'>0.84442E+02</wgt>
<wgt id='3405'>0.91367E+02</wgt>
<wgt id='3406'>0.81840E+02</wgt>
<wgt id='3407'>0.83681E+02</wgt>
<wgt id='3408'>0.83158E+02</wgt>
<wgt id='3409'>0.87739E+02</wgt>
<wgt id='3410'>0.91718E+02</wgt>
<wgt id='3411'>0.86592E+02</wgt>
<wgt id='3412'>0.79901E+02</wgt>
<wgt id='3413'>0.84615E+02</wgt>
<wgt id='3414'>0.89492E+02</wgt>
<wgt id='3415'>0.80748E+02</wgt>
<wgt id='3416'>0.81822E+02</wgt>
<wgt id='3417'>0.79842E+02</wgt>
<wgt id='3418'>0.82443E+02</wgt>
<wgt id='3419'>0.80985E+02</wgt>
<wgt id='3420'>0.79664E+02</wgt>
<wgt id='3421'>0.82838E+02</wgt>
<wgt id='3422'>0.76264E+02</wgt>
<wgt id='3423'>0.91829E+02</wgt>
<wgt id='3424'>0.92566E+02</wgt>
<wgt id='3425'>0.93396E+02</wgt>
<wgt id='3426'>0.86906E+02</wgt>
<wgt id='3427'>0.84686E+02</wgt>
<wgt id='3428'>0.75433E+02</wgt>
<wgt id='3429'>0.84110E+02</wgt>
<wgt id='3430'>0.79931E+02</wgt>
<wgt id='3431'>0.82758E+02</wgt>
<wgt id='3432'>0.82355E+02</wgt>
<wgt id='3433'>0.87957E+02</wgt>
<wgt id='3434'>0.95059E+02</wgt>
<wgt id='3435'>0.87038E+02</wgt>
<wgt id='3436'>0.84031E+02</wgt>
<wgt id='3437'>0.81540E+02</wgt>
<wgt id='3438'>0.79730E+02</wgt>
<wgt id='3439'>0.79523E+02</wgt>
<wgt id='3440'>0.82587E+02</wgt>
<wgt id='3441'>0.89161E+02</wgt>
<wgt id='3442'>0.85928E+02</wgt>
<wgt id='3443'>0.84699E+02</wgt>
<wgt id='3444'>0.88649E+02</wgt>
<wgt id='3445'>0.84726E+02</wgt>
<wgt id='3446'>0.77062E+02</wgt>
<wgt id='3447'>0.80078E+02</wgt>
<wgt id='3448'>0.80103E+02</wgt>
<wgt id='3449'>0.86806E+02</wgt>
<wgt id='3450'>0.95458E+02</wgt>
<wgt id='3451'>0.82294E+02</wgt>
<wgt id='3452'>0.82738E+02</wgt>
<wgt id='3453'>0.88328E+02</wgt>
<wgt id='3454'>0.88855E+02</wgt>
<wgt id='3455'>0.82776E+02</wgt>
<wgt id='3456'>0.81290E+02</wgt>
<wgt id='3457'>0.91327E+02</wgt>
<wgt id='3458'>0.83018E+02</wgt>
<wgt id='3459'>0.86214E+02</wgt>
<wgt id='3460'>0.88067E+02</wgt>
<wgt id='3461'>0.81955E+02</wgt>
<wgt id='3462'>0.81142E+02</wgt>
<wgt id='3463'>0.77953E+02</wgt>
<wgt id='3464'>0.87281E+02</wgt>
<wgt id='3465'>0.81226E+02</wgt>
<wgt id='3466'>0.85618E+02</wgt>
<wgt id='3467'>0.82788E+02</wgt>
<wgt id='3468'>0.87641E+02</wgt>
<wgt id='3469'>0.82747E+02</wgt>
<wgt id='3470'>0.85654E+02</wgt>
<wgt id='3471'>0.91402E+02</wgt>
<wgt id='3472'>0.83527E+02</wgt>
<wgt id='3473'>0.88820E+02</wgt>
<wgt id='3474'>0.91309E+02</wgt>
<wgt id='3475'>0.90077E+02</wgt>
<wgt id='3476'>0.89123E+02</wgt>
<wgt id='3477'>0.90602E+02</wgt>
<wgt id='3478'>0.87435E+02</wgt>
<wgt id='3479'>0.77461E+02</wgt>
<wgt id='3480'>0.83299E+02</wgt>
<wgt id='3481'>0.85240E+02</wgt>
<wgt id='3482'>0.89956E+02</wgt>
<wgt id='3483'>0.91318E+02</wgt>
<wgt id='3484'>0.80697E+02</wgt>
<wgt id='3485'>0.75401E+02</wgt>
<wgt id='3486'>0.83651E+02</wgt>
<wgt id='3487'>0.91274E+02</wgt>
<wgt id='3488'>0.85384E+02</wgt>
<wgt id='3489'>0.86156E+02</wgt>
<wgt id='3490'>0.95049E+02</wgt>
<wgt id='3491'>0.86613E+02</wgt>
<wgt id='3492'>0.85877E+02</wgt>
<wgt id='3493'>0.81737E+02</wgt>
<wgt id='3494'>0.76693E+02</wgt>
<wgt id='3495'>0.74858E+02</wgt>
<wgt id='3496'>0.86287E+02</wgt>
<wgt id='3497'>0.90585E+02</wgt>
<wgt id='3498'>0.80474E+02</wgt>
<wgt id='3499'>0.98606E+02</wgt>
<wgt id='3500'>0.81888E+02</wgt>
</rwgt>
</event>
<event>
     13 322200  8.11039E+01  3.99028E+01 -1.00000E+00  1.42722E-01
      21    -1     0     0   512   513  0.000000000E+00  0.000000000E+00  2.340799073E+02  2.340799073E+02  0.000000000E+00  0.00000E+00  9.000E+00
       2    -1     0     0   502     0  0.000000000E+00  0.000000000E+00 -2.148613921E+03  2.148613921E+03  0.000000000E+00  0.00000E+00  9.000E+00
       6     2     1     2   502     0  2.027297900E+02  1.205782836E+02  1.196321474E+02  3.156763131E+02  1.723403427E+02  0.00000E+00  9.000E+00
      -6     2     1     2     0   513 -2.268277151E+02 -1.523827504E+02 -1.679914963E+03  1.710526015E+03  1.706272284E+02  0.00000E+00  9.000E+00
       2     1     1     2   512     0  2.409792507E+01  3.180446683E+01 -3.542511984E+02  3.564915003E+02  2.100000000E-01  0.00000E+00  9.000E+00
      24     2     3     3     0     0  1.027016084E+02  1.707184493E-01  2.565435441E+01  1.330262432E+02  8.056169042E+01  0.00000E+00  9.000E+00
       5     1     3     3   502     0  1.000281816E+02  1.204075651E+02  9.397779300E+01  1.826500699E+02  5.060000000E+00  0.00000E+00 -1.000E+00
     -24     2     4     4     0     0 -1.251422321E+02 -1.414937478E+01 -8.505144736E+02  8.635436193E+02  8.044830431E+01  0.00000E+00  9.000E+00
      -5     1     4     4     0   513 -1.016854830E+02 -1.382333756E+02 -8.294004895E+02  8.469823960E+02  5.060000000E+00  0.00000E+00  1.000E+00
     -13     1     6     6     0     0  3.179225228E+01 -2.938853475E+01  3.495124639E+01  5.564201719E+01  1.057000000E-01  0.00000E+00  1.000E+00
      14     1     6     6     0     0  7.090935608E+01  2.955925319E+01 -9.296891981E+00  7.738422597E+01  0.000000000E+00  0.00000E+00 -1.000E+00
      11     1     8     8     0     0 -6.559018639E+01 -6.013909641E+00 -2.069521528E+02  2.171806465E+02  5.100000000E-04  0.00000E+00 -1.000E+00
     -12     1     8     8     0     0 -5.955204568E+01 -8.135465144E+00 -6.435623208E+02  6.463629729E+02  0.000000000E+00  0.00000E+00  1.000E+00
#rwgt            1           1   4085.4207218740230               10       18177           0
<rwgt>
<wgt id='1001'>0.81104E+02</wgt>
<wgt id='1002'>0.77750E+02</wgt>
<wgt id='1003'>0.85750E+02</wgt>
<wgt id='1004'>0.74734E+02</wgt>
<wgt id='1005'>0.70647E+02</wgt>
<wgt id='1006'>0.80166E+02</wgt>
<wgt id='1007'>0.87105E+02</wgt>
<wgt id='1008'>0.85184E+02</wgt>
<wgt id='1009'>0.90151E+02</wgt>
<wgt id='2000'>0.81104E+02</wgt>
<wgt id='2001'>0.81097E+02</wgt>
<wgt id='2002'>0.81099E+02</wgt>
<wgt id='2003'>0.81058E+02</wgt>
<wgt id='2004'>0.81254E+02</wgt>
<wgt id='2005'>0.80440E+02</wgt>
<wgt id='2006'>0.81404E+02</wgt>
<wgt id='2007'>0.80627E+02</wgt>
<wgt id='2008'>0.80607E+02</wgt>
<wgt id='2009'>0.80608E+02</wgt>
<wgt id='2010'>0.80691E+02</wgt>
<wgt id='2011'>0.81939E+02</wgt>
<wgt id='2012'>0.81283E+02</wgt>
<wgt id='2013'>0.81354E+02</wgt>
<wgt id='2014'>0.81296E+02</wgt>
<wgt id='2015'>0.81531E+02</wgt>
<wgt id='2016'>0.81203E+02</wgt>
<wgt id='2017'>0.81570E+02</wgt>
<wgt id='2018'>0.80755E+02</wgt>
<wgt id='2019'>0.80821E+02</wgt>
<wgt id='2020'>0.81315E+02</wgt>
<wgt id='2021'>0.81007E+02</wgt>
<wgt id='2022'>0.81422E+02</wgt>
<wgt id='2023'>0.80942E+02</wgt>
<wgt id='2024'>0.81675E+02</wgt>
<wgt id='2025'>0.80463E+02</wgt>
<wgt id='2026'>0.80628E+02</wgt>
<wgt id='2027'>0.80881E+02</wgt>
<wgt id='2028'>0.80723E+02</wgt>
<wgt id='2029'>0.80591E+02</wgt>
<wgt id='2030'>0.81284E+02</wgt>
<wgt id='2031'>0.80814E+02</wgt>
<wgt id='2032'>0.80684E+02</wgt>
<wgt id='2033'>0.80960E+02</wgt>
<wgt id='2034'>0.81041E+02</wgt>
<wgt id='2035'>0.81605E+02</wgt>
<wgt id='2036'>0.81115E+02</wgt>
<wgt id='2037'>0.80673E+02</wgt>
<wgt id='2038'>0.81554E+02</wgt>
<wgt id='2039'>0.81188E+02</wgt>
<wgt id='2040'>0.80645E+02</wgt>
<wgt id='2041'>0.80839E+02</wgt>
<wgt id='2042'>0.81440E+02</wgt>
<wgt id='2043'>0.81072E+02</wgt>
<wgt id='2044'>0.81256E+02</wgt>
<wgt id='2045'>0.81162E+02</wgt>
<wgt id='2046'>0.80434E+02</wgt>
<wgt id='2047'>0.81264E+02</wgt>
<wgt id='2048'>0.81122E+02</wgt>
<wgt id='2049'>0.80746E+02</wgt>
<wgt id='2050'>0.80958E+02</wgt>
<wgt id='2051'>0.81005E+02</wgt>
<wgt id='2052'>0.81292E+02</wgt>
<wgt id='2053'>0.81112E+02</wgt>
<wgt id='2054'>0.81043E+02</wgt>
<wgt id='2055'>0.80769E+02</wgt>
<wgt id='2056'>0.81198E+02</wgt>
<wgt id='2057'>0.81083E+02</wgt>
<wgt id='2058'>0.81229E+02</wgt>
<wgt id='2059'>0.81274E+02</wgt>
<wgt id='2060'>0.81021E+02</wgt>
<wgt id='2061'>0.81061E+02</wgt>
<wgt id='2062'>0.81171E+02</wgt>
<wgt id='2063'>0.81145E+02</wgt>
<wgt id='2064'>0.81131E+02</wgt>
<wgt id='2065'>0.81252E+02</wgt>
<wgt id='2066'>0.81010E+02</wgt>
<wgt id='2067'>0.80920E+02</wgt>
<wgt id='2068'>0.81475E+02</wgt>
<wgt id='2069'>0.81076E+02</wgt>
<wgt id='2070'>0.81180E+02</wgt>
<wgt id='2071'>0.80937E+02</wgt>
<wgt id='2072'>0.80980E+02</wgt>
<wgt id='2073'>0.81145E+02</wgt>
<wgt id='2074'>0.80963E+02</wgt>
<wgt id='2075'>0.81088E+02</wgt>
<wgt id='2076'>0.81120E+02</wgt>
<wgt id='2077'>0.81167E+02</wgt>
<wgt id='2078'>0.81148E+02</wgt>
<wgt id='2079'>0.81031E+02</wgt>
<wgt id='2080'>0.81079E+02</wgt>
<wgt id='2081'>0.81010E+02</wgt>
<wgt id='2082'>0.81130E+02</wgt>
<wgt id='2083'>0.81320E+02</wgt>
<wgt id='2084'>0.81043E+02</wgt>
<wgt id='2085'>0.81177E+02</wgt>
<wgt id='2086'>0.81053E+02</wgt>
<wgt id='2087'>0.81087E+02</wgt>
<wgt id='2088'>0.81089E+02</wgt>
<wgt id='2089'>0.81042E+02</wgt>
<wgt id='2090'>0.81150E+02</wgt>
<wgt id='2091'>0.81164E+02</wgt>
<wgt id='2092'>0.81185E+02</wgt>
<wgt id='2093'>0.80967E+02</wgt>
<wgt id='2094'>0.81120E+02</wgt>
<wgt id='2095'>0.81182E+02</wgt>
<wgt id='2096'>0.81049E+02</wgt>
<wgt id='2097'>0.81181E+02</wgt>
<wgt id='2098'>0.81125E+02</wgt>
<wgt id='2099'>0.81126E+02</wgt>
<wgt id='2100'>0.81104E+02</wgt>
<wgt id='2101'>0.78353E+02</wgt>
<wgt id='2102'>0.84246E+02</wgt>
<wgt id='2200'>0.81002E+02</wgt>
<wgt id='2201'>0.69395E+02</wgt>
<wgt id='2202'>0.71800E+02</wgt>
<wgt id='2203'>0.73956E+02</wgt>
<wgt id='2204'>0.75862E+02</wgt>
<wgt id='2205'>0.79582E+02</wgt>
<wgt id='2206'>0.82316E+02</wgt>
<wgt id='2207'>0.86460E+02</wgt>
<wgt id='2208'>0.89721E+02</wgt>
<wgt id='2300'>0.88958E+02</wgt>
<wgt id='2301'>0.88807E+02</wgt>
<wgt id='2302'>0.88974E+02</wgt>
<wgt id='2303'>0.88862E+02</wgt>
<wgt id='2304'>0.89380E+02</wgt>
<wgt id='2305'>0.88954E+02</wgt>
<wgt id='2306'>0.88803E+02</wgt>
<wgt id='2307'>0.89165E+02</wgt>
<wgt id='2308'>0.89015E+02</wgt>
<wgt id='2309'>0.89311E+02</wgt>
<wgt id='2310'>0.88973E+02</wgt>
<wgt id='2311'>0.88639E+02</wgt>
<wgt id='2312'>0.88741E+02</wgt>
<wgt id='2313'>0.89625E+02</wgt>
<wgt id='2314'>0.88895E+02</wgt>
<wgt id='2315'>0.88532E+02</wgt>
<wgt id='2316'>0.88912E+02</wgt>
<wgt id='2317'>0.88727E+02</wgt>
<wgt id='2318'>0.89260E+02</wgt>
<wgt id='2319'>0.89266E+02</wgt>
<wgt id='2320'>0.89060E+02</wgt>
<wgt id='2321'>0.88907E+02</wgt>
<wgt id='2322'>0.88950E+02</wgt>
<wgt id='2323'>0.88952E+02</wgt>
<wgt id='2324'>0.88711E+02</wgt>
<wgt id='2325'>0.89175E+02</wgt>
<wgt id='2326'>0.89248E+02</wgt>
<wgt id='2327'>0.89002E+02</wgt>
<wgt id='2328'>0.88528E+02</wgt>
<wgt id='2329'>0.88337E+02</wgt>
<wgt id='2330'>0.89758E+02</wgt>
<wgt id='2331'>0.89274E+02</wgt>
<wgt id='2332'>0.89214E+02</wgt>
<wgt id='2333'>0.89428E+02</wgt>
<wgt id='2334'>0.88851E+02</wgt>
<wgt id='2335'>0.89653E+02</wgt>
<wgt id='2336'>0.88872E+02</wgt>
<wgt id='2337'>0.89187E+02</wgt>
<wgt id='2338'>0.88872E+02</wgt>
<wgt id='2339'>0.88844E+02</wgt>
<wgt id='2340'>0.88759E+02</wgt>
<wgt id='2341'>0.89000E+02</wgt>
<wgt id='2342'>0.89201E+02</wgt>
<wgt id='2343'>0.89467E+02</wgt>
<wgt id='2344'>0.88655E+02</wgt>
<wgt id='2345'>0.88684E+02</wgt>
<wgt id='2346'>0.89110E+02</wgt>
<wgt id='2347'>0.89312E+02</wgt>
<wgt id='2348'>0.88359E+02</wgt>
<wgt id='2349'>0.89036E+02</wgt>
<wgt id='2350'>0.88751E+02</wgt>
<wgt id='2351'>0.89188E+02</wgt>
<wgt id='2352'>0.88901E+02</wgt>
<wgt id='2353'>0.88558E+02</wgt>
<wgt id='2354'>0.89010E+02</wgt>
<wgt id='2355'>0.89681E+02</wgt>
<wgt id='2356'>0.88633E+02</wgt>
<wgt id='2357'>0.88851E+02</wgt>
<wgt id='2358'>0.89302E+02</wgt>
<wgt id='2359'>0.88547E+02</wgt>
<wgt id='2360'>0.89366E+02</wgt>
<wgt id='2361'>0.88698E+02</wgt>
<wgt id='2362'>0.89005E+02</wgt>
<wgt id='2363'>0.88419E+02</wgt>
<wgt id='2364'>0.89145E+02</wgt>
<wgt id='2365'>0.88635E+02</wgt>
<wgt id='2366'>0.89187E+02</wgt>
<wgt id='2367'>0.88863E+02</wgt>
<wgt id='2368'>0.88973E+02</wgt>
<wgt id='2369'>0.88627E+02</wgt>
<wgt id='2370'>0.88920E+02</wgt>
<wgt id='2371'>0.88990E+02</wgt>
<wgt id='2372'>0.88965E+02</wgt>
<wgt id='2373'>0.88891E+02</wgt>
<wgt id='2374'>0.89607E+02</wgt>
<wgt id='2375'>0.88860E+02</wgt>
<wgt id='2376'>0.89160E+02</wgt>
<wgt id='2377'>0.89341E+02</wgt>
<wgt id='2378'>0.88991E+02</wgt>
<wgt id='2379'>0.88480E+02</wgt>
<wgt id='2380'>0.88675E+02</wgt>
<wgt id='2381'>0.88952E+02</wgt>
<wgt id='2382'>0.88900E+02</wgt>
<wgt id='2383'>0.88554E+02</wgt>
<wgt id='2384'>0.88854E+02</wgt>
<wgt id='2385'>0.89155E+02</wgt>
<wgt id='2386'>0.88749E+02</wgt>
<wgt id='2387'>0.88857E+02</wgt>
<wgt id='2388'>0.88826E+02</wgt>
<wgt id='2389'>0.88842E+02</wgt>
<wgt id='2390'>0.89170E+02</wgt>
<wgt id='2391'>0.88950E+02</wgt>
<wgt id='2392'>0.88969E+02</wgt>
<wgt id='2393'>0.89018E+02</wgt>
<wgt id='2394'>0.89082E+02</wgt>
<wgt id='2395'>0.89002E+02</wgt>
<wgt id='2396'>0.88933E+02</wgt>
<wgt id='2397'>0.88992E+02</wgt>
<wgt id='2398'>0.88914E+02</wgt>
<wgt id='2399'>0.88987E+02</wgt>
<wgt id='2400'>0.89114E+02</wgt>
<wgt id='2401'>0.86763E+02</wgt>
<wgt id='2402'>0.91202E+02</wgt>
<wgt id='2500'>0.87720E+02</wgt>
<wgt id='2501'>0.95157E+02</wgt>
<wgt id='2600'>0.82201E+02</wgt>
<wgt id='2601'>0.82321E+02</wgt>
<wgt id='2602'>0.81771E+02</wgt>
<wgt id='2603'>0.82085E+02</wgt>
<wgt id='2604'>0.81901E+02</wgt>
<wgt id='2605'>0.82007E+02</wgt>
<wgt id='2606'>0.82397E+02</wgt>
<wgt id='2607'>0.82175E+02</wgt>
<wgt id='2608'>0.82279E+02</wgt>
<wgt id='2609'>0.81909E+02</wgt>
<wgt id='2610'>0.82058E+02</wgt>
<wgt id='2611'>0.82188E+02</wgt>
<wgt id='2612'>0.82265E+02</wgt>
<wgt id='2613'>0.82269E+02</wgt>
<wgt id='2614'>0.82061E+02</wgt>
<wgt id='2615'>0.81912E+02</wgt>
<wgt id='2616'>0.82325E+02</wgt>
<wgt id='2617'>0.81853E+02</wgt>
<wgt id='2618'>0.82330E+02</wgt>
<wgt id='2619'>0.82352E+02</wgt>
<wgt id='2620'>0.81901E+02</wgt>
<wgt id='2621'>0.82329E+02</wgt>
<wgt id='2622'>0.82341E+02</wgt>
<wgt id='2623'>0.82154E+02</wgt>
<wgt id='2624'>0.81993E+02</wgt>
<wgt id='2625'>0.82471E+02</wgt>
<wgt id='2626'>0.82483E+02</wgt>
<wgt id='2627'>0.82193E+02</wgt>
<wgt id='2628'>0.82129E+02</wgt>
<wgt id='2629'>0.82438E+02</wgt>
<wgt id='2630'>0.82451E+02</wgt>
<wgt id='2631'>0.82779E+02</wgt>
<wgt id='2632'>0.81500E+02</wgt>
<wgt id='2633'>0.82337E+02</wgt>
<wgt id='2634'>0.82970E+02</wgt>
<wgt id='2635'>0.81872E+02</wgt>
<wgt id='2636'>0.82061E+02</wgt>
<wgt id='2637'>0.82013E+02</wgt>
<wgt id='2638'>0.82582E+02</wgt>
<wgt id='2639'>0.82070E+02</wgt>
<wgt id='2640'>0.82519E+02</wgt>
<wgt id='2641'>0.82265E+02</wgt>
<wgt id='2642'>0.82299E+02</wgt>
<wgt id='2643'>0.82482E+02</wgt>
<wgt id='2644'>0.82112E+02</wgt>
<wgt id='2645'>0.82011E+02</wgt>
<wgt id='2646'>0.82037E+02</wgt>
<wgt id='2647'>0.82332E+02</wgt>
<wgt id='2648'>0.82167E+02</wgt>
<wgt id='2649'>0.82255E+02</wgt>
<wgt id='2650'>0.82173E+02</wgt>
<wgt id='2651'>0.80212E+02</wgt>
<wgt id='2652'>0.83999E+02</wgt>
<wgt id='2700'>0.78047E+02</wgt>
<wgt id='2701'>0.80212E+02</wgt>
<wgt id='2702'>0.80961E+02</wgt>
<wgt id='2703'>0.83206E+02</wgt>
<wgt id='2704'>0.83999E+02</wgt>
<wgt id='2705'>0.85841E+02</wgt>
<wgt id='2800'>0.87684E+02</wgt>
<wgt id='4000'>0.93325E+02</wgt>
<wgt id='4001'>0.93470E+02</wgt>
<wgt id='4002'>0.93938E+02</wgt>
<wgt id='4003'>0.88746E+02</wgt>
<wgt id='4004'>0.99901E+02</wgt>
<wgt id='4005'>0.94643E+02</wgt>
<wgt id='4006'>0.92404E+02</wgt>
<wgt id='4007'>0.91910E+02</wgt>
<wgt id='4008'>0.94882E+02</wgt>
<wgt id='4009'>0.93114E+02</wgt>
<wgt id='4010'>0.92709E+02</wgt>
<wgt id='4011'>0.93738E+02</wgt>
<wgt id='4012'>0.92346E+02</wgt>
<wgt id='4013'>0.93957E+02</wgt>
<wgt id='4014'>0.93237E+02</wgt>
<wgt id='4015'>0.95737E+02</wgt>
<wgt id='4016'>0.94884E+02</wgt>
<wgt id='4017'>0.93954E+02</wgt>
<wgt id='4018'>0.92754E+02</wgt>
<wgt id='4019'>0.91546E+02</wgt>
<wgt id='4020'>0.96871E+02</wgt>
<wgt id='4021'>0.94560E+02</wgt>
<wgt id='4022'>0.91281E+02</wgt>
<wgt id='4023'>0.95318E+02</wgt>
<wgt id='4024'>0.93062E+02</wgt>
<wgt id='4025'>0.92835E+02</wgt>
<wgt id='4026'>0.94561E+02</wgt>
<wgt id='4027'>0.97138E+02</wgt>
<wgt id='4028'>0.90502E+02</wgt>
<wgt id='4029'>0.96505E+02</wgt>
<wgt id='4030'>0.93141E+02</wgt>
<wgt id='4031'>0.93680E+02</wgt>
<wgt id='4032'>0.97619E+02</wgt>
<wgt id='4033'>0.95224E+02</wgt>
<wgt id='4034'>0.92821E+02</wgt>
<wgt id='4035'>0.92679E+02</wgt>
<wgt id='4036'>0.94112E+02</wgt>
<wgt id='4037'>0.98297E+02</wgt>
<wgt id='4038'>0.89155E+02</wgt>
<wgt id='4039'>0.95583E+02</wgt>
<wgt id='4040'>0.91782E+02</wgt>
<wgt id='4041'>0.93905E+02</wgt>
<wgt id='4042'>0.92944E+02</wgt>
<wgt id='4043'>0.92155E+02</wgt>
<wgt id='4044'>0.94427E+02</wgt>
<wgt id='4045'>0.90901E+02</wgt>
<wgt id='4046'>0.95011E+02</wgt>
<wgt id='4047'>0.95646E+02</wgt>
<wgt id='4048'>0.93769E+02</wgt>
<wgt id='4049'>0.93156E+02</wgt>
<wgt id='4050'>0.94233E+02</wgt>
<wgt id='4051'>0.91100E+02</wgt>
<wgt id='4052'>0.95820E+02</wgt>
<wgt id='4053'>0.94586E+02</wgt>
<wgt id='4054'>0.91925E+02</wgt>
<wgt id='4055'>0.94694E+02</wgt>
<wgt id='4056'>0.92156E+02</wgt>
<wgt id='4057'>0.92351E+02</wgt>
<wgt id='4058'>0.93891E+02</wgt>
<wgt id='4100'>0.91402E+02</wgt>
<wgt id='4101'>0.92270E+02</wgt>
<wgt id='4102'>0.94513E+02</wgt>
<wgt id='4103'>0.95786E+02</wgt>
<wgt id='4200'>0.89973E+02</wgt>
<wgt id='4201'>0.90128E+02</wgt>
<wgt id='4202'>0.90439E+02</wgt>
<wgt id='4203'>0.89783E+02</wgt>
<wgt id='4204'>0.89752E+02</wgt>
<wgt id='4205'>0.90091E+02</wgt>
<wgt id='4206'>0.90315E+02</wgt>
<wgt id='4207'>0.91353E+02</wgt>
<wgt id='4208'>0.89770E+02</wgt>
<wgt id='4209'>0.89380E+02</wgt>
<wgt id='4210'>0.90436E+02</wgt>
<wgt id='4211'>0.89438E+02</wgt>
<wgt id='4212'>0.90492E+02</wgt>
<wgt id='4213'>0.89390E+02</wgt>
<wgt id='4214'>0.91034E+02</wgt>
<wgt id='4215'>0.90724E+02</wgt>
<wgt id='4216'>0.89905E+02</wgt>
<wgt id='4217'>0.90640E+02</wgt>
<wgt id='4218'>0.89353E+02</wgt>
<wgt id='4219'>0.91682E+02</wgt>
<wgt id='4220'>0.88890E+02</wgt>
<wgt id='4221'>0.90698E+02</wgt>
<wgt id='4222'>0.90009E+02</wgt>
<wgt id='4223'>0.87876E+02</wgt>
<wgt id='4224'>0.89436E+02</wgt>
<wgt id='4225'>0.90242E+02</wgt>
<wgt id='4226'>0.91168E+02</wgt>
<wgt id='4227'>0.91552E+02</wgt>
<wgt id='4228'>0.88728E+02</wgt>
<wgt id='4229'>0.88634E+02</wgt>
<wgt id='4230'>0.91780E+02</wgt>
<wgt id='4231'>0.92329E+02</wgt>
<wgt id='4232'>0.86773E+02</wgt>
<wgt id='4233'>0.91986E+02</wgt>
<wgt id='4234'>0.86924E+02</wgt>
<wgt id='4235'>0.92868E+02</wgt>
<wgt id='4236'>0.87344E+02</wgt>
<wgt id='4237'>0.93094E+02</wgt>
<wgt id='4238'>0.85574E+02</wgt>
<wgt id='4239'>0.91048E+02</wgt>
<wgt id='4240'>0.90979E+02</wgt>
<wgt id='4241'>0.90831E+02</wgt>
<wgt id='4242'>0.89235E+02</wgt>
<wgt id='4243'>0.91558E+02</wgt>
<wgt id='4244'>0.88488E+02</wgt>
<wgt id='4245'>0.91196E+02</wgt>
<wgt id='4246'>0.87712E+02</wgt>
<wgt id='4247'>0.87421E+02</wgt>
<wgt id='4248'>0.91833E+02</wgt>
<wgt id='4249'>0.90758E+02</wgt>
<wgt id='4250'>0.89251E+02</wgt>
<wgt id='4251'>0.96298E+02</wgt>
<wgt id='4252'>0.86366E+02</wgt>
<wgt id='4253'>0.94944E+02</wgt>
<wgt id='4254'>0.84894E+02</wgt>
<wgt id='4255'>0.93046E+02</wgt>
<wgt id='4256'>0.89227E+02</wgt>
<wgt id='4257'>0.88403E+02</wgt>
<wgt id='4258'>0.90405E+02</wgt>
<wgt id='4300'>0.91711E+02</wgt>
<wgt id='4301'>0.93508E+02</wgt>
<wgt id='5000'>0.87385E+02</wgt>
<wgt id='5001'>0.87447E+02</wgt>
<wgt id='5002'>0.87306E+02</wgt>
<wgt id='5003'>0.87407E+02</wgt>
<wgt id='5004'>0.87365E+02</wgt>
<wgt id='5005'>0.87407E+02</wgt>
<wgt id='5006'>0.87350E+02</wgt>
<wgt id='5007'>0.87502E+02</wgt>
<wgt id='5008'>0.87290E+02</wgt>
<wgt id='5009'>0.87521E+02</wgt>
<wgt id='5010'>0.87245E+02</wgt>
<wgt id='5011'>0.87761E+02</wgt>
<wgt id='5012'>0.87024E+02</wgt>
<wgt id='5013'>0.87636E+02</wgt>
<wgt id='5014'>0.87207E+02</wgt>
<wgt id='5015'>0.86953E+02</wgt>
<wgt id='5016'>0.86953E+02</wgt>
<wgt id='5017'>0.87514E+02</wgt>
<wgt id='5018'>0.87301E+02</wgt>
<wgt id='5019'>0.87560E+02</wgt>
<wgt id='5020'>0.87142E+02</wgt>
<wgt id='5021'>0.87427E+02</wgt>
<wgt id='5022'>0.87322E+02</wgt>
<wgt id='5023'>0.87448E+02</wgt>
<wgt id='5024'>0.87232E+02</wgt>
<wgt id='5025'>0.87488E+02</wgt>
<wgt id='5026'>0.87258E+02</wgt>
<wgt id='5027'>0.87506E+02</wgt>
<wgt id='5028'>0.87060E+02</wgt>
<wgt id='5029'>0.89236E+02</wgt>
<wgt id='5030'>0.86358E+02</wgt>
<wgt id='5031'>0.86196E+02</wgt>
<wgt id='5032'>0.91113E+02</wgt>
<wgt id='5033'>0.87140E+02</wgt>
<wgt id='5034'>0.87648E+02</wgt>
<wgt id='5035'>0.87420E+02</wgt>
<wgt id='5036'>0.87338E+02</wgt>
<wgt id='5037'>0.86729E+02</wgt>
<wgt id='5038'>0.87754E+02</wgt>
<wgt id='5039'>0.87485E+02</wgt>
<wgt id='5040'>0.87127E+02</wgt>
<wgt id='5041'>0.85870E+02</wgt>
<wgt id='5042'>0.89095E+02</wgt>
<wgt id='5043'>0.87710E+02</wgt>
<wgt id='5044'>0.87086E+02</wgt>
<wgt id='5045'>0.88930E+02</wgt>
<wgt id='5046'>0.84581E+02</wgt>
<wgt id='5047'>0.87654E+02</wgt>
<wgt id='5048'>0.86203E+02</wgt>
<wgt id='5049'>0.87088E+02</wgt>
<wgt id='5050'>0.88023E+02</wgt>
<wgt id='5051'>0.87908E+02</wgt>
<wgt id='5052'>0.87070E+02</wgt>
<wgt id='5053'>0.88603E+02</wgt>
<wgt id='5054'>0.87294E+02</wgt>
<wgt id='5055'>0.87307E+02</wgt>
<wgt id='5056'>0.87569E+02</wgt>
<wgt id='5057'>0.86723E+02</wgt>
<wgt id='5058'>0.87853E+02</wgt>
<wgt id='5059'>0.86869E+02</wgt>
<wgt id='5060'>0.87617E+02</wgt>
<wgt id='5061'>0.87535E+02</wgt>
<wgt id='5062'>0.88131E+02</wgt>
<wgt id='5063'>0.87466E+02</wgt>
<wgt id='5064'>0.87947E+02</wgt>
<wgt id='5100'>0.87385E+02</wgt>
<wgt id='5101'>0.87353E+02</wgt>
<wgt id='6000'>0.89276E+02</wgt>
<wgt id='6001'>0.89453E+02</wgt>
<wgt id='6002'>0.87172E+02</wgt>
<wgt id='6003'>0.88907E+02</wgt>
<wgt id='6004'>0.90681E+02</wgt>
<wgt id='6005'>0.88133E+02</wgt>
<wgt id='6006'>0.90177E+02</wgt>
<wgt id='6007'>0.88027E+02</wgt>
<wgt id='6008'>0.90505E+02</wgt>
<wgt id='6009'>0.89726E+02</wgt>
<wgt id='6010'>0.90461E+02</wgt>
<wgt id='6011'>0.89291E+02</wgt>
<wgt id='6012'>0.89662E+02</wgt>
<wgt id='6013'>0.88841E+02</wgt>
<wgt id='6014'>0.88718E+02</wgt>
<wgt id='6015'>0.88092E+02</wgt>
<wgt id='6016'>0.90029E+02</wgt>
<wgt id='6017'>0.89043E+02</wgt>
<wgt id='6018'>0.88147E+02</wgt>
<wgt id='6019'>0.90284E+02</wgt>
<wgt id='6020'>0.89356E+02</wgt>
<wgt id='6021'>0.89506E+02</wgt>
<wgt id='6022'>0.91924E+02</wgt>
<wgt id='6023'>0.89402E+02</wgt>
<wgt id='6024'>0.89542E+02</wgt>
<wgt id='6025'>0.89718E+02</wgt>
<wgt id='6026'>0.89445E+02</wgt>
<wgt id='6027'>0.89451E+02</wgt>
<wgt id='6028'>0.88400E+02</wgt>
<wgt id='6029'>0.88990E+02</wgt>
<wgt id='6030'>0.88958E+02</wgt>
<wgt id='6031'>0.88729E+02</wgt>
<wgt id='6032'>0.89315E+02</wgt>
<wgt id='6033'>0.89228E+02</wgt>
<wgt id='6034'>0.90303E+02</wgt>
<wgt id='6035'>0.89385E+02</wgt>
<wgt id='6036'>0.89214E+02</wgt>
<wgt id='6037'>0.89197E+02</wgt>
<wgt id='6038'>0.88972E+02</wgt>
<wgt id='6039'>0.90069E+02</wgt>
<wgt id='6040'>0.89380E+02</wgt>
<wgt id='6041'>0.86585E+02</wgt>
<wgt id='6042'>0.90563E+02</wgt>
<wgt id='7000'>0.74409E+02</wgt>
<wgt id='7001'>0.73291E+02</wgt>
<wgt id='7002'>0.73450E+02</wgt>
<wgt id='7003'>0.73295E+02</wgt>
<wgt id='7004'>0.73447E+02</wgt>
<wgt id='7005'>0.73280E+02</wgt>
<wgt id='7006'>0.73462E+02</wgt>
<wgt id='7007'>0.73734E+02</wgt>
<wgt id='7008'>0.73019E+02</wgt>
<wgt id='7009'>0.72922E+02</wgt>
<wgt id='7010'>0.73837E+02</wgt>
<wgt id='7011'>0.73519E+02</wgt>
<wgt id='7012'>0.73235E+02</wgt>
<wgt id='7013'>0.73532E+02</wgt>
<wgt id='7014'>0.73205E+02</wgt>
<wgt id='7015'>0.73691E+02</wgt>
<wgt id='7016'>0.72881E+02</wgt>
<wgt id='7017'>0.73024E+02</wgt>
<wgt id='7018'>0.73755E+02</wgt>
<wgt id='7019'>0.74336E+02</wgt>
<wgt id='7020'>0.72451E+02</wgt>
<wgt id='7021'>0.76168E+02</wgt>
<wgt id='7022'>0.70935E+02</wgt>
<wgt id='7023'>0.71400E+02</wgt>
<wgt id='7024'>0.75431E+02</wgt>
<wgt id='7025'>0.71190E+02</wgt>
<wgt id='7026'>0.75697E+02</wgt>
<wgt id='7027'>0.72250E+02</wgt>
<wgt id='7028'>0.74553E+02</wgt>
<wgt id='8000'>0.78015E+02</wgt>
<wgt id='8001'>0.78019E+02</wgt>
<wgt id='8002'>0.78036E+02</wgt>
<wgt id='8003'>0.78008E+02</wgt>
<wgt id='8004'>0.78013E+02</wgt>
<wgt id='8005'>0.77912E+02</wgt>
<wgt id='8006'>0.78197E+02</wgt>
<wgt id='8007'>0.78328E+02</wgt>
<wgt id='8008'>0.78139E+02</wgt>
<wgt id='8009'>0.78256E+02</wgt>
<wgt id='8010'>0.77888E+02</wgt>
<wgt id='8011'>0.78100E+02</wgt>
<wgt id='8012'>0.77697E+02</wgt>
<wgt id='8013'>0.77789E+02</wgt>
<wgt id='8014'>0.78331E+02</wgt>
<wgt id='8015'>0.77957E+02</wgt>
<wgt id='8016'>0.78218E+02</wgt>
<wgt id='8017'>0.78274E+02</wgt>
<wgt id='8018'>0.78558E+02</wgt>
<wgt id='8019'>0.77417E+02</wgt>
<wgt id='8020'>0.79068E+02</wgt>
<wgt id='8021'>0.77660E+02</wgt>
<wgt id='8022'>0.79927E+02</wgt>
<wgt id='8023'>0.77250E+02</wgt>
<wgt id='8024'>0.76655E+02</wgt>
<wgt id='8025'>0.76712E+02</wgt>
<wgt id='8026'>0.77765E+02</wgt>
<wgt id='8027'>0.78448E+02</wgt>
<wgt id='8028'>0.77896E+02</wgt>
<wgt id='8029'>0.83372E+02</wgt>
<wgt id='3000'>0.81104E+02</wgt>
<wgt id='3001'>0.83080E+02</wgt>
<wgt id='3002'>0.78432E+02</wgt>
<wgt id='3003'>0.76148E+02</wgt>
<wgt id='3004'>0.81454E+02</wgt>
<wgt id='3005'>0.79449E+02</wgt>
<wgt id='3006'>0.84700E+02</wgt>
<wgt id='3007'>0.80579E+02</wgt>
<wgt id='3008'>0.77675E+02</wgt>
<wgt id='3009'>0.79568E+02</wgt>
<wgt id='3010'>0.82215E+02</wgt>
<wgt id='3011'>0.80413E+02</wgt>
<wgt id='3012'>0.85450E+02</wgt>
<wgt id='3013'>0.82968E+02</wgt>
<wgt id='3014'>0.83787E+02</wgt>
<wgt id='3015'>0.80392E+02</wgt>
<wgt id='3016'>0.77699E+02</wgt>
<wgt id='3017'>0.81216E+02</wgt>
<wgt id='3018'>0.79231E+02</wgt>
<wgt id='3019'>0.78634E+02</wgt>
<wgt id='3020'>0.79726E+02</wgt>
<wgt id='3021'>0.80215E+02</wgt>
<wgt id='3022'>0.79153E+02</wgt>
<wgt id='3023'>0.77272E+02</wgt>
<wgt id='3024'>0.82395E+02</wgt>
<wgt id='3025'>0.78964E+02</wgt>
<wgt id='3026'>0.78909E+02</wgt>
<wgt id='3027'>0.83455E+02</wgt>
<wgt id='3028'>0.79264E+02</wgt>
<wgt id='3029'>0.83762E+02</wgt>
<wgt id='3030'>0.84804E+02</wgt>
<wgt id='3031'>0.78040E+02</wgt>
<wgt id='3032'>0.84310E+02</wgt>
<wgt id='3033'>0.81474E+02</wgt>
<wgt id='3034'>0.82479E+02</wgt>
<wgt id='3035'>0.73324E+02</wgt>
<wgt id='3036'>0.84730E+02</wgt>
<wgt id='3037'>0.79551E+02</wgt>
<wgt id='3038'>0.83059E+02</wgt>
<wgt id='3039'>0.84467E+02</wgt>
<wgt id='3040'>0.80137E+02</wgt>
<wgt id='3041'>0.79934E+02</wgt>
<wgt id='3042'>0.82596E+02</wgt>
<wgt id='3043'>0.82268E+02</wgt>
<wgt id='3044'>0.81156E+02</wgt>
<wgt id='3045'>0.77409E+02</wgt>
<wgt id='3046'>0.85535E+02</wgt>
<wgt id='3047'>0.82588E+02</wgt>
<wgt id='3048'>0.84419E+02</wgt>
<wgt id='3049'>0.83544E+02</wgt>
<wgt id='3050'>0.81905E+02</wgt>
<wgt id='3051'>0.84115E+02</wgt>
<wgt id='3052'>0.81178E+02</wgt>
<wgt id='3053'>0.80800E+02</wgt>
<wgt id='3054'>0.83319E+02</wgt>
<wgt id='3055'>0.79790E+02</wgt>
<wgt id='3056'>0.82681E+02</wgt>
<wgt id='3057'>0.80201E+02</wgt>
<wgt id='3058'>0.84322E+02</wgt>
<wgt id='3059'>0.77509E+02</wgt>
<wgt id='3060'>0.82659E+02</wgt>
<wgt id='3061'>0.81490E+02</wgt>
<wgt id='3062'>0.80605E+02</wgt>
<wgt id='3063'>0.81998E+02</wgt>
<wgt id='3064'>0.81291E+02</wgt>
<wgt id='3065'>0.79773E+02</wgt>
<wgt id='3066'>0.78611E+02</wgt>
<wgt id='3067'>0.75262E+02</wgt>
<wgt id='3068'>0.83003E+02</wgt>
<wgt id='3069'>0.81898E+02</wgt>
<wgt id='3070'>0.83661E+02</wgt>
<wgt id='3071'>0.80999E+02</wgt>
<wgt id='3072'>0.80044E+02</wgt>
<wgt id='3073'>0.79557E+02</wgt>
<wgt id='3074'>0.78067E+02</wgt>
<wgt id='3075'>0.80283E+02</wgt>
<wgt id='3076'>0.78727E+02</wgt>
<wgt id='3077'>0.82186E+02</wgt>
<wgt id='3078'>0.80665E+02</wgt>
<wgt id='3079'>0.80740E+02</wgt>
<wgt id='3080'>0.86179E+02</wgt>
<wgt id='3081'>0.81667E+02</wgt>
<wgt id='3082'>0.77699E+02</wgt>
<wgt id='3083'>0.83653E+02</wgt>
<wgt id='3084'>0.79644E+02</wgt>
<wgt id='3085'>0.79249E+02</wgt>
<wgt id='3086'>0.87865E+02</wgt>
<wgt id='3087'>0.80294E+02</wgt>
<wgt id='3088'>0.83772E+02</wgt>
<wgt id='3089'>0.82518E+02</wgt>
<wgt id='3090'>0.81214E+02</wgt>
<wgt id='3091'>0.75820E+02</wgt>
<wgt id='3092'>0.85085E+02</wgt>
<wgt id='3093'>0.81119E+02</wgt>
<wgt id='3094'>0.81190E+02</wgt>
<wgt id='3095'>0.84241E+02</wgt>
<wgt id='3096'>0.75819E+02</wgt>
<wgt id='3097'>0.86874E+02</wgt>
<wgt id='3098'>0.81097E+02</wgt>
<wgt id='3099'>0.77699E+02</wgt>
<wgt id='3100'>0.78374E+02</wgt>
<wgt id='3200'>0.82423E+02</wgt>
<wgt id='3201'>0.85103E+02</wgt>
<wgt id='3202'>0.83870E+02</wgt>
<wgt id='3203'>0.84270E+02</wgt>
<wgt id='3204'>0.84201E+02</wgt>
<wgt id='3205'>0.83741E+02</wgt>
<wgt id='3206'>0.80694E+02</wgt>
<wgt id='3207'>0.81262E+02</wgt>
<wgt id='3208'>0.82926E+02</wgt>
<wgt id='3209'>0.82781E+02</wgt>
<wgt id='3210'>0.81426E+02</wgt>
<wgt id='3211'>0.79252E+02</wgt>
<wgt id='3212'>0.83007E+02</wgt>
<wgt id='3213'>0.81165E+02</wgt>
<wgt id='3214'>0.82278E+02</wgt>
<wgt id='3215'>0.81186E+02</wgt>
<wgt id='3216'>0.86435E+02</wgt>
<wgt id='3217'>0.80404E+02</wgt>
<wgt id='3218'>0.81834E+02</wgt>
<wgt id='3219'>0.79979E+02</wgt>
<wgt id='3220'>0.84617E+02</wgt>
<wgt id='3221'>0.81215E+02</wgt>
<wgt id='3222'>0.84584E+02</wgt>
<wgt id='3223'>0.81287E+02</wgt>
<wgt id='3224'>0.80860E+02</wgt>
<wgt id='3225'>0.82719E+02</wgt>
<wgt id='3226'>0.85300E+02</wgt>
<wgt id='3227'>0.84499E+02</wgt>
<wgt id='3228'>0.81684E+02</wgt>
<wgt id='3229'>0.83225E+02</wgt>
<wgt id='3230'>0.83504E+02</wgt>
<wgt id='3231'>0.81173E+02</wgt>
<wgt id='3232'>0.83237E+02</wgt>
<wgt id='3233'>0.82841E+02</wgt>
<wgt id='3234'>0.79966E+02</wgt>
<wgt id='3235'>0.82423E+02</wgt>
<wgt id='3236'>0.83424E+02</wgt>
<wgt id='3237'>0.82143E+02</wgt>
<wgt id='3238'>0.85682E+02</wgt>
<wgt id='3239'>0.80421E+02</wgt>
<wgt id='3240'>0.78849E+02</wgt>
<wgt id='3241'>0.83167E+02</wgt>
<wgt id='3242'>0.85668E+02</wgt>
<wgt id='3243'>0.84093E+02</wgt>
<wgt id='3244'>0.82113E+02</wgt>
<wgt id='3245'>0.85134E+02</wgt>
<wgt id='3246'>0.80541E+02</wgt>
<wgt id='3247'>0.82117E+02</wgt>
<wgt id='3248'>0.80679E+02</wgt>
<wgt id='3249'>0.82837E+02</wgt>
<wgt id='3250'>0.80596E+02</wgt>
<wgt id='3251'>0.81837E+02</wgt>
<wgt id='3252'>0.85053E+02</wgt>
<wgt id='3253'>0.85194E+02</wgt>
<wgt id='3254'>0.82234E+02</wgt>
<wgt id='3255'>0.80865E+02</wgt>
<wgt id='3256'>0.81647E+02</wgt>
<wgt id='3257'>0.80557E+02</wgt>
<wgt id='3258'>0.80861E+02</wgt>
<wgt id='3259'>0.82288E+02</wgt>
<wgt id='3260'>0.85475E+02</wgt>
<wgt id='3261'>0.84364E+02</wgt>
<wgt id='3262'>0.82397E+02</wgt>
<wgt id='3263'>0.83625E+02</wgt>
<wgt id='3264'>0.86615E+02</wgt>
<wgt id='3265'>0.82897E+02</wgt>
<wgt id='3266'>0.82143E+02</wgt>
<wgt id='3267'>0.81373E+02</wgt>
<wgt id='3268'>0.77994E+02</wgt>
<wgt id='3269'>0.80806E+02</wgt>
<wgt id='3270'>0.81146E+02</wgt>
<wgt id='3271'>0.79628E+02</wgt>
<wgt id='3272'>0.83410E+02</wgt>
<wgt id='3273'>0.81149E+02</wgt>
<wgt id='3274'>0.84982E+02</wgt>
<wgt id='3275'>0.84436E+02</wgt>
<wgt id='3276'>0.79371E+02</wgt>
<wgt id='3277'>0.81975E+02</wgt>
<wgt id='3278'>0.83025E+02</wgt>
<wgt id='3279'>0.84267E+02</wgt>
<wgt id='3280'>0.81524E+02</wgt>
<wgt id='3281'>0.83433E+02</wgt>
<wgt id='3282'>0.80710E+02</wgt>
<wgt id='3283'>0.82999E+02</wgt>
<wgt id='3284'>0.81849E+02</wgt>
<wgt id='3285'>0.82219E+02</wgt>
<wgt id='3286'>0.80788E+02</wgt>
<wgt id='3287'>0.81943E+02</wgt>
<wgt id='3288'>0.80714E+02</wgt>
<wgt id='3289'>0.81059E+02</wgt>
<wgt id='3290'>0.82545E+02</wgt>
<wgt id='3291'>0.81946E+02</wgt>
<wgt id='3292'>0.83282E+02</wgt>
<wgt id='3293'>0.84148E+02</wgt>
<wgt id='3294'>0.82229E+02</wgt>
<wgt id='3295'>0.81260E+02</wgt>
<wgt id='3296'>0.84639E+02</wgt>
<wgt id='3297'>0.80939E+02</wgt>
<wgt id='3298'>0.80196E+02</wgt>
<wgt id='3299'>0.82986E+02</wgt>
<wgt id='3300'>0.82990E+02</wgt>
<wgt id='3301'>0.80212E+02</wgt>
<wgt id='3302'>0.83999E+02</wgt>
<wgt id='3400'>0.83830E+02</wgt>
<wgt id='3401'>0.87878E+02</wgt>
<wgt id='3402'>0.81122E+02</wgt>
<wgt id='3403'>0.83682E+02</wgt>
<wgt id='3404'>0.84204E+02</wgt>
<wgt id='3405'>0.88056E+02</wgt>
<wgt id='3406'>0.81353E+02</wgt>
<wgt id='3407'>0.82026E+02</wgt>
<wgt id='3408'>0.83113E+02</wgt>
<wgt id='3409'>0.81453E+02</wgt>
<wgt id='3410'>0.86436E+02</wgt>
<wgt id='3411'>0.82344E+02</wgt>
<wgt id='3412'>0.82177E+02</wgt>
<wgt id='3413'>0.84254E+02</wgt>
<wgt id='3414'>0.85957E+02</wgt>
<wgt id='3415'>0.83708E+02</wgt>
<wgt id='3416'>0.83496E+02</wgt>
<wgt id='3417'>0.81877E+02</wgt>
<wgt id='3418'>0.83385E+02</wgt>
<wgt id='3419'>0.83361E+02</wgt>
<wgt id='3420'>0.82143E+02</wgt>
<wgt id='3421'>0.83577E+02</wgt>
<wgt id='3422'>0.80373E+02</wgt>
<wgt id='3423'>0.89992E+02</wgt>
<wgt id='3424'>0.85433E+02</wgt>
<wgt id='3425'>0.85200E+02</wgt>
<wgt id='3426'>0.83349E+02</wgt>
<wgt id='3427'>0.86511E+02</wgt>
<wgt id='3428'>0.81064E+02</wgt>
<wgt id='3429'>0.81239E+02</wgt>
<wgt id='3430'>0.84495E+02</wgt>
<wgt id='3431'>0.84030E+02</wgt>
<wgt id='3432'>0.81288E+02</wgt>
<wgt id='3433'>0.85612E+02</wgt>
<wgt id='3434'>0.88568E+02</wgt>
<wgt id='3435'>0.85982E+02</wgt>
<wgt id='3436'>0.84184E+02</wgt>
<wgt id='3437'>0.83654E+02</wgt>
<wgt id='3438'>0.81785E+02</wgt>
<wgt id='3439'>0.83476E+02</wgt>
<wgt id='3440'>0.83204E+02</wgt>
<wgt id='3441'>0.86189E+02</wgt>
<wgt id='3442'>0.86324E+02</wgt>
<wgt id='3443'>0.86037E+02</wgt>
<wgt id='3444'>0.86386E+02</wgt>
<wgt id='3445'>0.82722E+02</wgt>
<wgt id='3446'>0.83240E+02</wgt>
<wgt id='3447'>0.81713E+02</wgt>
<wgt id='3448'>0.81541E+02</wgt>
<wgt id='3449'>0.84026E+02</wgt>
<wgt id='3450'>0.84728E+02</wgt>
<wgt id='3451'>0.82459E+02</wgt>
<wgt id='3452'>0.82214E+02</wgt>
<wgt id='3453'>0.82332E+02</wgt>
<wgt id='3454'>0.83631E+02</wgt>
<wgt id='3455'>0.83122E+02</wgt>
<wgt id='3456'>0.83260E+02</wgt>
<wgt id='3457'>0.84627E+02</wgt>
<wgt id='3458'>0.81536E+02</wgt>
<wgt id='3459'>0.86932E+02</wgt>
<wgt id='3460'>0.85253E+02</wgt>
<wgt id='3461'>0.84008E+02</wgt>
<wgt id='3462'>0.82603E+02</wgt>
<wgt id='3463'>0.83426E+02</wgt>
<wgt id='3464'>0.83979E+02</wgt>
<wgt id='3465'>0.79638E+02</wgt>
<wgt id='3466'>0.85628E+02</wgt>
<wgt id='3467'>0.83333E+02</wgt>
<wgt id='3468'>0.85011E+02</wgt>
<wgt id='3469'>0.81146E+02</wgt>
<wgt id='3470'>0.84695E+02</wgt>
<wgt id='3471'>0.82938E+02</wgt>
<wgt id='3472'>0.82519E+02</wgt>
<wgt id='3473'>0.85184E+02</wgt>
<wgt id='3474'>0.86264E+02</wgt>
<wgt id='3475'>0.83314E+02</wgt>
<wgt id='3476'>0.84178E+02</wgt>
<wgt id='3477'>0.85870E+02</wgt>
<wgt id='3478'>0.84023E+02</wgt>
<wgt id='3479'>0.80508E+02</wgt>
<wgt id='3480'>0.82232E+02</wgt>
<wgt id='3481'>0.84871E+02</wgt>
<wgt id='3482'>0.85330E+02</wgt>
<wgt id='3483'>0.85792E+02</wgt>
<wgt id='3484'>0.84307E+02</wgt>
<wgt id='3485'>0.81177E+02</wgt>
<wgt id='3486'>0.83140E+02</wgt>
<wgt id='3487'>0.84696E+02</wgt>
<wgt id='3488'>0.83529E+02</wgt>
<wgt id='3489'>0.83582E+02</wgt>
<wgt id='3490'>0.87626E+02</wgt>
<wgt id='3491'>0.83226E+02</wgt>
<wgt id='3492'>0.85147E+02</wgt>
<wgt id='3493'>0.83003E+02</wgt>
<wgt id='3494'>0.80005E+02</wgt>
<wgt id='3495'>0.83229E+02</wgt>
<wgt id='3496'>0.82002E+02</wgt>
<wgt id='3497'>0.84237E+02</wgt>
<wgt id='3498'>0.81509E+02</wgt>
<wgt id='3499'>0.88805E+02</wgt>
<wgt id='3500'>0.84204E+02</wgt>
</rwgt>
</event>
<event>
     13 322200  8.11039E+01  8.53598E+01 -1.00000E+00  1.25331E-01
      21    -1     0     0   504   505  0.000000000E+00  0.000000000E+00  6.247473883E+02  6.247473883E+02  0.000000000E+00  0.00000E+00  9.000E+00
      21    -1     0     0   502   503  0.000000000E+00  0.000000000E+00 -8.136302802E+01  8.136302802E+01  0.000000000E+00  0.00000E+00  9.000E+00
       6     2     1     2   502     0  8.611415055E+00  1.106491527E+02  1.772838136E+02  2.663053014E+02  1.648380160E+02  0.00000E+00  9.000E+00
      -6     2     1     2     0   505 -5.610952675E+01 -3.972507271E+01  2.830332432E+02  3.206981352E+02  1.342129529E+02  0.00000E+00  9.000E+00
      21     1     1     2   504   503  4.749811170E+01 -7.092407995E+01  8.306730346E+01  1.191069798E+02  9.536743164E-07  0.00000E+00  9.000E+00
      24     2     3     3     0     0 -1.237321506E+01  1.353035920E+02  1.122077828E+02  1.934445475E+02  7.981258032E+01  0.00000E+00  9.000E+00
       5     1     3     3   502     0  2.098463011E+01 -2.465443930E+01  6.507603075E+01  7.286075388E+01  5.060000000E+00  0.00000E+00 -1.000E+00
     -24     2     4     4     0     0 -5.223514359E+01 -5.837710877E+01  1.576566032E+02  1.937815690E+02  8.098947402E+01  0.00000E+00  9.000E+00
      -5     1     4     4     0   505 -3.874383163E+00  1.865203606E+01  1.253766400E+02  1.269165661E+02  5.060000000E+00  0.00000E+00  1.000E+00
     -13     1     6     6     0     0 -4.262309278E+01  4.788875629E+01  3.554255188E+01  7.330310487E+01  1.057000000E-01  0.00000E+00  1.000E+00
      14     1     6     6     0     0  3.024987773E+01  8.741483567E+01  7.666523093E+01  1.201414426E+02  0.000000000E+00  0.00000E+00 -1.000E+00
      13     1     8     8     0     0  2.040095102E+01 -2.008546909E+01  2.631893226E+01  3.888858751E+01  1.057000000E-01  0.00000E+00 -1.000E+00
     -14     1     8     8     0     0 -7.263609461E+01 -3.829163968E+01  1.313376709E+02  1.548929815E+02  0.000000000E+00  0.00000E+00  1.000E+00
#rwgt            1           1   773.70369738644445               10       18590           0
<rwgt>
<wgt id='1001'>0.81104E+02</wgt>
<wgt id='1002'>0.70051E+02</wgt>
<wgt id='1003'>0.96329E+02</wgt>
<wgt id='1004'>0.77604E+02</wgt>
<wgt id='1005'>0.68447E+02</wgt>
<wgt id='1006'>0.89926E+02</wgt>
<wgt id='1007'>0.81714E+02</wgt>
<wgt id='1008'>0.68097E+02</wgt>
<wgt id='1009'>0.10098E+03</wgt>
<wgt id='2000'>0.81104E+02</wgt>
<wgt id='2001'>0.80849E+02</wgt>
<wgt id='2002'>0.80984E+02</wgt>
<wgt id='2003'>0.81319E+02</wgt>
<wgt id='2004'>0.81250E+02</wgt>
<wgt id='2005'>0.80975E+02</wgt>
<wgt id='2006'>0.81213E+02</wgt>
<wgt id='2007'>0.81132E+02</wgt>
<wgt id='2008'>0.81115E+02</wgt>
<wgt id='2009'>0.81166E+02</wgt>
<wgt id='2010'>0.81053E+02</wgt>
<wgt id='2011'>0.81206E+02</wgt>
<wgt id='2012'>0.81112E+02</wgt>
<wgt id='2013'>0.81165E+02</wgt>
<wgt id='2014'>0.81218E+02</wgt>
<wgt id='2015'>0.81127E+02</wgt>
<wgt id='2016'>0.81277E+02</wgt>
<wgt id='2017'>0.81332E+02</wgt>
<wgt id='2018'>0.81088E+02</wgt>
<wgt id='2019'>0.80466E+02</wgt>
<wgt id='2020'>0.81278E+02</wgt>
<wgt id='2021'>0.80900E+02</wgt>
<wgt id='2022'>0.81253E+02</wgt>
<wgt id='2023'>0.81405E+02</wgt>
<wgt id='2024'>0.80776E+02</wgt>
<wgt id='2025'>0.81063E+02</wgt>
<wgt id='2026'>0.80938E+02</wgt>
<wgt id='2027'>0.81002E+02</wgt>
<wgt id='2028'>0.81155E+02</wgt>
<wgt id='2029'>0.80879E+02</wgt>
<wgt id='2030'>0.81175E+02</wgt>
<wgt id='2031'>0.80739E+02</wgt>
<wgt id='2032'>0.81210E+02</wgt>
<wgt id='2033'>0.81058E+02</wgt>
<wgt id='2034'>0.80776E+02</wgt>
<wgt id='2035'>0.81061E+02</wgt>
<wgt id='2036'>0.81370E+02</wgt>
<wgt id='2037'>0.81123E+02</wgt>
<wgt id='2038'>0.80946E+02</wgt>
<wgt id='2039'>0.80948E+02</wgt>
<wgt id='2040'>0.81058E+02</wgt>
<wgt id='2041'>0.81085E+02</wgt>
<wgt id='2042'>0.81172E+02</wgt>
<wgt id='2043'>0.80986E+02</wgt>
<wgt id='2044'>0.81176E+02</wgt>
<wgt id='2045'>0.81006E+02</wgt>
<wgt id='2046'>0.81084E+02</wgt>
<wgt id='2047'>0.81100E+02</wgt>
<wgt id='2048'>0.81136E+02</wgt>
<wgt id='2049'>0.81021E+02</wgt>
<wgt id='2050'>0.81034E+02</wgt>
<wgt id='2051'>0.81096E+02</wgt>
<wgt id='2052'>0.81192E+02</wgt>
<wgt id='2053'>0.81124E+02</wgt>
<wgt id='2054'>0.81084E+02</wgt>
<wgt id='2055'>0.81115E+02</wgt>
<wgt id='2056'>0.80992E+02</wgt>
<wgt id='2057'>0.81134E+02</wgt>
<wgt id='2058'>0.81149E+02</wgt>
<wgt id='2059'>0.81094E+02</wgt>
<wgt id='2060'>0.81149E+02</wgt>
<wgt id='2061'>0.81069E+02</wgt>
<wgt id='2062'>0.81202E+02</wgt>
<wgt id='2063'>0.81099E+02</wgt>
<wgt id='2064'>0.81134E+02</wgt>
<wgt id='2065'>0.81205E+02</wgt>
<wgt id='2066'>0.81075E+02</wgt>
<wgt id='2067'>0.81100E+02</wgt>
<wgt id='2068'>0.81105E+02</wgt>
<wgt id='2069'>0.81092E+02</wgt>
<wgt id='2070'>0.81095E+02</wgt>
<wgt id='2071'>0.81095E+02</wgt>
<wgt id='2072'>0.81105E+02</wgt>
<wgt id='2073'>0.81107E+02</wgt>
<wgt id='2074'>0.81091E+02</wgt>
<wgt id='2075'>0.81092E+02</wgt>
<wgt id='2076'>0.81077E+02</wgt>
<wgt id='2077'>0.81156E+02</wgt>
<wgt id='2078'>0.81098E+02</wgt>
<wgt id='2079'>0.81103E+02</wgt>
<wgt id='2080'>0.81124E+02</wgt>
<wgt id='2081'>0.81121E+02</wgt>
<wgt id='2082'>0.81121E+02</wgt>
<wgt id='2083'>0.81121E+02</wgt>
<wgt id='2084'>0.81104E+02</wgt>
<wgt id='2085'>0.81106E+02</wgt>
<wgt id='2086'>0.81098E+02</wgt>
<wgt id='2087'>0.81129E+02</wgt>
<wgt id='2088'>0.81106E+02</wgt>
<wgt id='2089'>0.81096E+02</wgt>
<wgt id='2090'>0.81110E+02</wgt>
<wgt id='2091'>0.81101E+02</wgt>
<wgt id='2092'>0.81129E+02</wgt>
<wgt id='2093'>0.81114E+02</wgt>
<wgt id='2094'>0.81119E+02</wgt>
<wgt id='2095'>0.81132E+02</wgt>
<wgt id='2096'>0.81104E+02</wgt>
<wgt id='2097'>0.81111E+02</wgt>
<wgt id='2098'>0.81097E+02</wgt>
<wgt id='2099'>0.81108E+02</wgt>
<wgt id='2100'>0.81104E+02</wgt>
<wgt id='2101'>0.79378E+02</wgt>
<wgt id='2102'>0.83028E+02</wgt>
<wgt id='2200'>0.81116E+02</wgt>
<wgt id='2201'>0.72126E+02</wgt>
<wgt id='2202'>0.74086E+02</wgt>
<wgt id='2203'>0.75670E+02</wgt>
<wgt id='2204'>0.77082E+02</wgt>
<wgt id='2205'>0.80213E+02</wgt>
<wgt id='2206'>0.82120E+02</wgt>
<wgt id='2207'>0.84851E+02</wgt>
<wgt id='2208'>0.86669E+02</wgt>
<wgt id='2300'>0.84719E+02</wgt>
<wgt id='2301'>0.84811E+02</wgt>
<wgt id='2302'>0.84633E+02</wgt>
<wgt id='2303'>0.84609E+02</wgt>
<wgt id='2304'>0.84982E+02</wgt>
<wgt id='2305'>0.84615E+02</wgt>
<wgt id='2306'>0.84647E+02</wgt>
<wgt id='2307'>0.84669E+02</wgt>
<wgt id='2308'>0.84699E+02</wgt>
<wgt id='2309'>0.84754E+02</wgt>
<wgt id='2310'>0.84612E+02</wgt>
<wgt id='2311'>0.84637E+02</wgt>
<wgt id='2312'>0.84710E+02</wgt>
<wgt id='2313'>0.84803E+02</wgt>
<wgt id='2314'>0.84597E+02</wgt>
<wgt id='2315'>0.84678E+02</wgt>
<wgt id='2316'>0.84725E+02</wgt>
<wgt id='2317'>0.84593E+02</wgt>
<wgt id='2318'>0.84630E+02</wgt>
<wgt id='2319'>0.85016E+02</wgt>
<wgt id='2320'>0.85046E+02</wgt>
<wgt id='2321'>0.85093E+02</wgt>
<wgt id='2322'>0.84711E+02</wgt>
<wgt id='2323'>0.84846E+02</wgt>
<wgt id='2324'>0.84941E+02</wgt>
<wgt id='2325'>0.84848E+02</wgt>
<wgt id='2326'>0.84394E+02</wgt>
<wgt id='2327'>0.84809E+02</wgt>
<wgt id='2328'>0.84852E+02</wgt>
<wgt id='2329'>0.84472E+02</wgt>
<wgt id='2330'>0.85381E+02</wgt>
<wgt id='2331'>0.85044E+02</wgt>
<wgt id='2332'>0.84506E+02</wgt>
<wgt id='2333'>0.84685E+02</wgt>
<wgt id='2334'>0.84632E+02</wgt>
<wgt id='2335'>0.84948E+02</wgt>
<wgt id='2336'>0.84900E+02</wgt>
<wgt id='2337'>0.84671E+02</wgt>
<wgt id='2338'>0.84765E+02</wgt>
<wgt id='2339'>0.84974E+02</wgt>
<wgt id='2340'>0.84656E+02</wgt>
<wgt id='2341'>0.84755E+02</wgt>
<wgt id='2342'>0.84537E+02</wgt>
<wgt id='2343'>0.84401E+02</wgt>
<wgt id='2344'>0.84934E+02</wgt>
<wgt id='2345'>0.84867E+02</wgt>
<wgt id='2346'>0.84973E+02</wgt>
<wgt id='2347'>0.84697E+02</wgt>
<wgt id='2348'>0.84828E+02</wgt>
<wgt id='2349'>0.84622E+02</wgt>
<wgt id='2350'>0.84520E+02</wgt>
<wgt id='2351'>0.84983E+02</wgt>
<wgt id='2352'>0.84624E+02</wgt>
<wgt id='2353'>0.84755E+02</wgt>
<wgt id='2354'>0.84795E+02</wgt>
<wgt id='2355'>0.84653E+02</wgt>
<wgt id='2356'>0.84774E+02</wgt>
<wgt id='2357'>0.84825E+02</wgt>
<wgt id='2358'>0.84617E+02</wgt>
<wgt id='2359'>0.84783E+02</wgt>
<wgt id='2360'>0.84727E+02</wgt>
<wgt id='2361'>0.84893E+02</wgt>
<wgt id='2362'>0.84679E+02</wgt>
<wgt id='2363'>0.84838E+02</wgt>
<wgt id='2364'>0.84705E+02</wgt>
<wgt id='2365'>0.84779E+02</wgt>
<wgt id='2366'>0.84715E+02</wgt>
<wgt id='2367'>0.84738E+02</wgt>
<wgt id='2368'>0.84691E+02</wgt>
<wgt id='2369'>0.84681E+02</wgt>
<wgt id='2370'>0.84660E+02</wgt>
<wgt id='2371'>0.84738E+02</wgt>
<wgt id='2372'>0.84747E+02</wgt>
<wgt id='2373'>0.84719E+02</wgt>
<wgt id='2374'>0.84786E+02</wgt>
<wgt id='2375'>0.84759E+02</wgt>
<wgt id='2376'>0.84722E+02</wgt>
<wgt id='2377'>0.84682E+02</wgt>
<wgt id='2378'>0.84783E+02</wgt>
<wgt id='2379'>0.84712E+02</wgt>
<wgt id='2380'>0.84699E+02</wgt>
<wgt id='2381'>0.84714E+02</wgt>
<wgt id='2382'>0.84709E+02</wgt>
<wgt id='2383'>0.84781E+02</wgt>
<wgt id='2384'>0.84721E+02</wgt>
<wgt id='2385'>0.84747E+02</wgt>
<wgt id='2386'>0.84721E+02</wgt>
<wgt id='2387'>0.84694E+02</wgt>
<wgt id='2388'>0.84734E+02</wgt>
<wgt id='2389'>0.84742E+02</wgt>
<wgt id='2390'>0.84719E+02</wgt>
<wgt id='2391'>0.84721E+02</wgt>
<wgt id='2392'>0.84712E+02</wgt>
<wgt id='2393'>0.84740E+02</wgt>
<wgt id='2394'>0.84721E+02</wgt>
<wgt id='2395'>0.84740E+02</wgt>
<wgt id='2396'>0.84699E+02</wgt>
<wgt id='2397'>0.84715E+02</wgt>
<wgt id='2398'>0.84708E+02</wgt>
<wgt id='2399'>0.84741E+02</wgt>
<wgt id='2400'>0.84728E+02</wgt>
<wgt id='2401'>0.82770E+02</wgt>
<wgt id='2402'>0.86589E+02</wgt>
<wgt id='2500'>0.81728E+02</wgt>
<wgt id='2501'>0.86541E+02</wgt>
<wgt id='2600'>0.77917E+02</wgt>
<wgt id='2601'>0.77779E+02</wgt>
<wgt id='2602'>0.77953E+02</wgt>
<wgt id='2603'>0.77901E+02</wgt>
<wgt id='2604'>0.77940E+02</wgt>
<wgt id='2605'>0.77837E+02</wgt>
<wgt id='2606'>0.77937E+02</wgt>
<wgt id='2607'>0.77930E+02</wgt>
<wgt id='2608'>0.78014E+02</wgt>
<wgt id='2609'>0.77839E+02</wgt>
<wgt id='2610'>0.77869E+02</wgt>
<wgt id='2611'>0.77870E+02</wgt>
<wgt id='2612'>0.78000E+02</wgt>
<wgt id='2613'>0.77902E+02</wgt>
<wgt id='2614'>0.77857E+02</wgt>
<wgt id='2615'>0.77699E+02</wgt>
<wgt id='2616'>0.77922E+02</wgt>
<wgt id='2617'>0.77693E+02</wgt>
<wgt id='2618'>0.77769E+02</wgt>
<wgt id='2619'>0.78000E+02</wgt>
<wgt id='2620'>0.77843E+02</wgt>
<wgt id='2621'>0.77973E+02</wgt>
<wgt id='2622'>0.78299E+02</wgt>
<wgt id='2623'>0.77915E+02</wgt>
<wgt id='2624'>0.77898E+02</wgt>
<wgt id='2625'>0.77857E+02</wgt>
<wgt id='2626'>0.77886E+02</wgt>
<wgt id='2627'>0.77948E+02</wgt>
<wgt id='2628'>0.77926E+02</wgt>
<wgt id='2629'>0.77932E+02</wgt>
<wgt id='2630'>0.77990E+02</wgt>
<wgt id='2631'>0.77715E+02</wgt>
<wgt id='2632'>0.77952E+02</wgt>
<wgt id='2633'>0.77828E+02</wgt>
<wgt id='2634'>0.77728E+02</wgt>
<wgt id='2635'>0.77900E+02</wgt>
<wgt id='2636'>0.77914E+02</wgt>
<wgt id='2637'>0.77949E+02</wgt>
<wgt id='2638'>0.77905E+02</wgt>
<wgt id='2639'>0.77931E+02</wgt>
<wgt id='2640'>0.77857E+02</wgt>
<wgt id='2641'>0.77932E+02</wgt>
<wgt id='2642'>0.77931E+02</wgt>
<wgt id='2643'>0.77857E+02</wgt>
<wgt id='2644'>0.77927E+02</wgt>
<wgt id='2645'>0.77933E+02</wgt>
<wgt id='2646'>0.77968E+02</wgt>
<wgt id='2647'>0.77885E+02</wgt>
<wgt id='2648'>0.77926E+02</wgt>
<wgt id='2649'>0.77931E+02</wgt>
<wgt id='2650'>0.77928E+02</wgt>
<wgt id='2651'>0.76776E+02</wgt>
<wgt id='2652'>0.78856E+02</wgt>
<wgt id='2700'>0.75811E+02</wgt>
<wgt id='2701'>0.76776E+02</wgt>
<wgt id='2702'>0.77438E+02</wgt>
<wgt id='2703'>0.78367E+02</wgt>
<wgt id='2704'>0.78856E+02</wgt>
<wgt id='2705'>0.79872E+02</wgt>
<wgt id='2800'>0.78590E+02</wgt>
<wgt id='4000'>0.80843E+02</wgt>
<wgt id='4001'>0.81186E+02</wgt>
<wgt id='4002'>0.80778E+02</wgt>
<wgt id='4003'>0.80988E+02</wgt>
<wgt id='4004'>0.80874E+02</wgt>
<wgt id='4005'>0.80792E+02</wgt>
<wgt id='4006'>0.81143E+02</wgt>
<wgt id='4007'>0.81671E+02</wgt>
<wgt id='4008'>0.80095E+02</wgt>
<wgt id='4009'>0.80926E+02</wgt>
<wgt id='4010'>0.80662E+02</wgt>
<wgt id='4011'>0.81383E+02</wgt>
<wgt id='4012'>0.80517E+02</wgt>
<wgt id='4013'>0.81248E+02</wgt>
<wgt id='4014'>0.80548E+02</wgt>
<wgt id='4015'>0.80153E+02</wgt>
<wgt id='4016'>0.81936E+02</wgt>
<wgt id='4017'>0.80807E+02</wgt>
<wgt id='4018'>0.80927E+02</wgt>
<wgt id='4019'>0.81261E+02</wgt>
<wgt id='4020'>0.80232E+02</wgt>
<wgt id='4021'>0.80976E+02</wgt>
<wgt id='4022'>0.80612E+02</wgt>
<wgt id='4023'>0.81235E+02</wgt>
<wgt id='4024'>0.80861E+02</wgt>
<wgt id='4025'>0.80978E+02</wgt>
<wgt id='4026'>0.80702E+02</wgt>
<wgt id='4027'>0.80862E+02</wgt>
<wgt id='4028'>0.80924E+02</wgt>
<wgt id='4029'>0.81130E+02</wgt>
<wgt id='4030'>0.79663E+02</wgt>
<wgt id='4031'>0.80375E+02</wgt>
<wgt id='4032'>0.82132E+02</wgt>
<wgt id='4033'>0.81479E+02</wgt>
<wgt id='4034'>0.79759E+02</wgt>
<wgt id='4035'>0.82014E+02</wgt>
<wgt id='4036'>0.80008E+02</wgt>
<wgt id='4037'>0.82820E+02</wgt>
<wgt id='4038'>0.79523E+02</wgt>
<wgt id='4039'>0.82556E+02</wgt>
<wgt id='4040'>0.79183E+02</wgt>
<wgt id='4041'>0.81100E+02</wgt>
<wgt id='4042'>0.80428E+02</wgt>
<wgt id='4043'>0.80489E+02</wgt>
<wgt id='4044'>0.80028E+02</wgt>
<wgt id='4045'>0.81642E+02</wgt>
<wgt id='4046'>0.80479E+02</wgt>
<wgt id='4047'>0.80584E+02</wgt>
<wgt id='4048'>0.81047E+02</wgt>
<wgt id='4049'>0.81049E+02</wgt>
<wgt id='4050'>0.80644E+02</wgt>
<wgt id='4051'>0.81649E+02</wgt>
<wgt id='4052'>0.80271E+02</wgt>
<wgt id='4053'>0.80800E+02</wgt>
<wgt id='4054'>0.80295E+02</wgt>
<wgt id='4055'>0.81288E+02</wgt>
<wgt id='4056'>0.80420E+02</wgt>
<wgt id='4057'>0.80072E+02</wgt>
<wgt id='4058'>0.81347E+02</wgt>
<wgt id='4100'>0.81164E+02</wgt>
<wgt id='4101'>0.80991E+02</wgt>
<wgt id='4102'>0.80703E+02</wgt>
<wgt id='4103'>0.80562E+02</wgt>
<wgt id='4200'>0.78507E+02</wgt>
<wgt id='4201'>0.78449E+02</wgt>
<wgt id='4202'>0.78764E+02</wgt>
<wgt id='4203'>0.77886E+02</wgt>
<wgt id='4204'>0.79080E+02</wgt>
<wgt id='4205'>0.78358E+02</wgt>
<wgt id='4206'>0.78814E+02</wgt>
<wgt id='4207'>0.78692E+02</wgt>
<wgt id='4208'>0.78245E+02</wgt>
<wgt id='4209'>0.78678E+02</wgt>
<wgt id='4210'>0.78563E+02</wgt>
<wgt id='4211'>0.79449E+02</wgt>
<wgt id='4212'>0.77816E+02</wgt>
<wgt id='4213'>0.78833E+02</wgt>
<wgt id='4214'>0.78029E+02</wgt>
<wgt id='4215'>0.78423E+02</wgt>
<wgt id='4216'>0.78735E+02</wgt>
<wgt id='4217'>0.78367E+02</wgt>
<wgt id='4218'>0.78683E+02</wgt>
<wgt id='4219'>0.77325E+02</wgt>
<wgt id='4220'>0.79637E+02</wgt>
<wgt id='4221'>0.77886E+02</wgt>
<wgt id='4222'>0.79492E+02</wgt>
<wgt id='4223'>0.78200E+02</wgt>
<wgt id='4224'>0.78109E+02</wgt>
<wgt id='4225'>0.77513E+02</wgt>
<wgt id='4226'>0.79636E+02</wgt>
<wgt id='4227'>0.79211E+02</wgt>
<wgt id='4228'>0.77912E+02</wgt>
<wgt id='4229'>0.77037E+02</wgt>
<wgt id='4230'>0.79519E+02</wgt>
<wgt id='4231'>0.78582E+02</wgt>
<wgt id='4232'>0.78310E+02</wgt>
<wgt id='4233'>0.78640E+02</wgt>
<wgt id='4234'>0.78057E+02</wgt>
<wgt id='4235'>0.79079E+02</wgt>
<wgt id='4236'>0.78054E+02</wgt>
<wgt id='4237'>0.79081E+02</wgt>
<wgt id='4238'>0.77508E+02</wgt>
<wgt id='4239'>0.77974E+02</wgt>
<wgt id='4240'>0.77874E+02</wgt>
<wgt id='4241'>0.78469E+02</wgt>
<wgt id='4242'>0.78496E+02</wgt>
<wgt id='4243'>0.78482E+02</wgt>
<wgt id='4244'>0.78855E+02</wgt>
<wgt id='4245'>0.78108E+02</wgt>
<wgt id='4246'>0.78745E+02</wgt>
<wgt id='4247'>0.78202E+02</wgt>
<wgt id='4248'>0.78622E+02</wgt>
<wgt id='4249'>0.79804E+02</wgt>
<wgt id='4250'>0.77050E+02</wgt>
<wgt id='4251'>0.78473E+02</wgt>
<wgt id='4252'>0.78481E+02</wgt>
<wgt id='4253'>0.78216E+02</wgt>
<wgt id='4254'>0.78558E+02</wgt>
<wgt id='4255'>0.79477E+02</wgt>
<wgt id='4256'>0.77874E+02</wgt>
<wgt id='4257'>0.77071E+02</wgt>
<wgt id='4258'>0.78920E+02</wgt>
<wgt id='4300'>0.80059E+02</wgt>
<wgt id='4301'>0.79974E+02</wgt>
<wgt id='5000'>0.81373E+02</wgt>
<wgt id='5001'>0.81425E+02</wgt>
<wgt id='5002'>0.81307E+02</wgt>
<wgt id='5003'>0.81388E+02</wgt>
<wgt id='5004'>0.81361E+02</wgt>
<wgt id='5005'>0.81404E+02</wgt>
<wgt id='5006'>0.81323E+02</wgt>
<wgt id='5007'>0.81439E+02</wgt>
<wgt id='5008'>0.81320E+02</wgt>
<wgt id='5009'>0.81496E+02</wgt>
<wgt id='5010'>0.81247E+02</wgt>
<wgt id='5011'>0.81526E+02</wgt>
<wgt id='5012'>0.81226E+02</wgt>
<wgt id='5013'>0.81493E+02</wgt>
<wgt id='5014'>0.81289E+02</wgt>
<wgt id='5015'>0.80978E+02</wgt>
<wgt id='5016'>0.80978E+02</wgt>
<wgt id='5017'>0.81828E+02</wgt>
<wgt id='5018'>0.81066E+02</wgt>
<wgt id='5019'>0.81668E+02</wgt>
<wgt id='5020'>0.80970E+02</wgt>
<wgt id='5021'>0.81441E+02</wgt>
<wgt id='5022'>0.81270E+02</wgt>
<wgt id='5023'>0.81295E+02</wgt>
<wgt id='5024'>0.81561E+02</wgt>
<wgt id='5025'>0.81146E+02</wgt>
<wgt id='5026'>0.81628E+02</wgt>
<wgt id='5027'>0.81424E+02</wgt>
<wgt id='5028'>0.81236E+02</wgt>
<wgt id='5029'>0.82373E+02</wgt>
<wgt id='5030'>0.80810E+02</wgt>
<wgt id='5031'>0.80872E+02</wgt>
<wgt id='5032'>0.82907E+02</wgt>
<wgt id='5033'>0.81341E+02</wgt>
<wgt id='5034'>0.81408E+02</wgt>
<wgt id='5035'>0.81389E+02</wgt>
<wgt id='5036'>0.81354E+02</wgt>
<wgt id='5037'>0.81163E+02</wgt>
<wgt id='5038'>0.81492E+02</wgt>
<wgt id='5039'>0.81578E+02</wgt>
<wgt id='5040'>0.80868E+02</wgt>
<wgt id='5041'>0.81318E+02</wgt>
<wgt id='5042'>0.81417E+02</wgt>
<wgt id='5043'>0.81591E+02</wgt>
<wgt id='5044'>0.81231E+02</wgt>
<wgt id='5045'>0.81259E+02</wgt>
<wgt id='5046'>0.81702E+02</wgt>
<wgt id='5047'>0.81444E+02</wgt>
<wgt id='5048'>0.81062E+02</wgt>
<wgt id='5049'>0.81352E+02</wgt>
<wgt id='5050'>0.81469E+02</wgt>
<wgt id='5051'>0.81562E+02</wgt>
<wgt id='5052'>0.81235E+02</wgt>
<wgt id='5053'>0.81396E+02</wgt>
<wgt id='5054'>0.81600E+02</wgt>
<wgt id='5055'>0.81420E+02</wgt>
<wgt id='5056'>0.81457E+02</wgt>
<wgt id='5057'>0.81086E+02</wgt>
<wgt id='5058'>0.81575E+02</wgt>
<wgt id='5059'>0.81314E+02</wgt>
<wgt id='5060'>0.81442E+02</wgt>
<wgt id='5061'>0.81707E+02</wgt>
<wgt id='5062'>0.81462E+02</wgt>
<wgt id='5063'>0.81683E+02</wgt>
<wgt id='5064'>0.81371E+02</wgt>
<wgt id='5100'>0.81373E+02</wgt>
<wgt id='5101'>0.81360E+02</wgt>
<wgt id='6000'>0.80508E+02</wgt>
<wgt id='6001'>0.80256E+02</wgt>
<wgt id='6002'>0.80278E+02</wgt>
<wgt id='6003'>0.80316E+02</wgt>
<wgt id='6004'>0.80626E+02</wgt>
<wgt id='6005'>0.80081E+02</wgt>
<wgt id='6006'>0.80569E+02</wgt>
<wgt id='6007'>0.80167E+02</wgt>
<wgt id='6008'>0.80762E+02</wgt>
<wgt id='6009'>0.80399E+02</wgt>
<wgt id='6010'>0.79535E+02</wgt>
<wgt id='6011'>0.80489E+02</wgt>
<wgt id='6012'>0.80717E+02</wgt>
<wgt id='6013'>0.80163E+02</wgt>
<wgt id='6014'>0.80219E+02</wgt>
<wgt id='6015'>0.79888E+02</wgt>
<wgt id='6016'>0.80761E+02</wgt>
<wgt id='6017'>0.80178E+02</wgt>
<wgt id='6018'>0.80094E+02</wgt>
<wgt id='6019'>0.80456E+02</wgt>
<wgt id='6020'>0.80664E+02</wgt>
<wgt id='6021'>0.80355E+02</wgt>
<wgt id='6022'>0.80399E+02</wgt>
<wgt id='6023'>0.80456E+02</wgt>
<wgt id='6024'>0.80588E+02</wgt>
<wgt id='6025'>0.80902E+02</wgt>
<wgt id='6026'>0.80360E+02</wgt>
<wgt id='6027'>0.80512E+02</wgt>
<wgt id='6028'>0.80225E+02</wgt>
<wgt id='6029'>0.80320E+02</wgt>
<wgt id='6030'>0.79978E+02</wgt>
<wgt id='6031'>0.80258E+02</wgt>
<wgt id='6032'>0.80485E+02</wgt>
<wgt id='6033'>0.80427E+02</wgt>
<wgt id='6034'>0.80837E+02</wgt>
<wgt id='6035'>0.80561E+02</wgt>
<wgt id='6036'>0.81246E+02</wgt>
<wgt id='6037'>0.80495E+02</wgt>
<wgt id='6038'>0.80525E+02</wgt>
<wgt id='6039'>0.80682E+02</wgt>
<wgt id='6040'>0.80493E+02</wgt>
<wgt id='6041'>0.79438E+02</wgt>
<wgt id='6042'>0.81351E+02</wgt>
<wgt id='7000'>0.80264E+02</wgt>
<wgt id='7001'>0.79854E+02</wgt>
<wgt id='7002'>0.80025E+02</wgt>
<wgt id='7003'>0.79909E+02</wgt>
<wgt id='7004'>0.79970E+02</wgt>
<wgt id='7005'>0.80050E+02</wgt>
<wgt id='7006'>0.79829E+02</wgt>
<wgt id='7007'>0.80435E+02</wgt>
<wgt id='7008'>0.79458E+02</wgt>
<wgt id='7009'>0.79529E+02</wgt>
<wgt id='7010'>0.80363E+02</wgt>
<wgt id='7011'>0.80273E+02</wgt>
<wgt id='7012'>0.79610E+02</wgt>
<wgt id='7013'>0.79817E+02</wgt>
<wgt id='7014'>0.80056E+02</wgt>
<wgt id='7015'>0.79991E+02</wgt>
<wgt id='7016'>0.79679E+02</wgt>
<wgt id='7017'>0.79844E+02</wgt>
<wgt id='7018'>0.80041E+02</wgt>
<wgt id='7019'>0.79896E+02</wgt>
<wgt id='7020'>0.80002E+02</wgt>
<wgt id='7021'>0.80502E+02</wgt>
<wgt id='7022'>0.79363E+02</wgt>
<wgt id='7023'>0.79374E+02</wgt>
<wgt id='7024'>0.80532E+02</wgt>
<wgt id='7025'>0.78684E+02</wgt>
<wgt id='7026'>0.81157E+02</wgt>
<wgt id='7027'>0.79468E+02</wgt>
<wgt id='7028'>0.80464E+02</wgt>
<wgt id='8000'>0.81269E+02</wgt>
<wgt id='8001'>0.81262E+02</wgt>
<wgt id='8002'>0.81293E+02</wgt>
<wgt id='8003'>0.81271E+02</wgt>
<wgt id='8004'>0.81267E+02</wgt>
<wgt id='8005'>0.81133E+02</wgt>
<wgt id='8006'>0.81363E+02</wgt>
<wgt id='8007'>0.81461E+02</wgt>
<wgt id='8008'>0.81464E+02</wgt>
<wgt id='8009'>0.81629E+02</wgt>
<wgt id='8010'>0.81166E+02</wgt>
<wgt id='8011'>0.81294E+02</wgt>
<wgt id='8012'>0.80923E+02</wgt>
<wgt id='8013'>0.81096E+02</wgt>
<wgt id='8014'>0.81492E+02</wgt>
<wgt id='8015'>0.81206E+02</wgt>
<wgt id='8016'>0.81384E+02</wgt>
<wgt id='8017'>0.81352E+02</wgt>
<wgt id='8018'>0.81524E+02</wgt>
<wgt id='8019'>0.81266E+02</wgt>
<wgt id='8020'>0.81331E+02</wgt>
<wgt id='8021'>0.81164E+02</wgt>
<wgt id='8022'>0.81373E+02</wgt>
<wgt id='8023'>0.81118E+02</wgt>
<wgt id='8024'>0.80897E+02</wgt>
<wgt id='8025'>0.81076E+02</wgt>
<wgt id='8026'>0.81346E+02</wgt>
<wgt id='8027'>0.81384E+02</wgt>
<wgt id='8028'>0.81382E+02</wgt>
<wgt id='8029'>0.81523E+02</wgt>
<wgt id='3000'>0.81104E+02</wgt>
<wgt id='3001'>0.81292E+02</wgt>
<wgt id='3002'>0.79777E+02</wgt>
<wgt id='3003'>0.78856E+02</wgt>
<wgt id='3004'>0.82370E+02</wgt>
<wgt id='3005'>0.82273E+02</wgt>
<wgt id='3006'>0.82647E+02</wgt>
<wgt id='3007'>0.80090E+02</wgt>
<wgt id='3008'>0.80706E+02</wgt>
<wgt id='3009'>0.80658E+02</wgt>
<wgt id='3010'>0.83398E+02</wgt>
<wgt id='3011'>0.80928E+02</wgt>
<wgt id='3012'>0.81134E+02</wgt>
<wgt id='3013'>0.79362E+02</wgt>
<wgt id='3014'>0.81166E+02</wgt>
<wgt id='3015'>0.79217E+02</wgt>
<wgt id='3016'>0.81342E+02</wgt>
<wgt id='3017'>0.82323E+02</wgt>
<wgt id='3018'>0.80857E+02</wgt>
<wgt id='3019'>0.79665E+02</wgt>
<wgt id='3020'>0.80225E+02</wgt>
<wgt id='3021'>0.79262E+02</wgt>
<wgt id='3022'>0.79019E+02</wgt>
<wgt id='3023'>0.79658E+02</wgt>
<wgt id='3024'>0.81400E+02</wgt>
<wgt id='3025'>0.80383E+02</wgt>
<wgt id='3026'>0.80506E+02</wgt>
<wgt id='3027'>0.80042E+02</wgt>
<wgt id='3028'>0.80233E+02</wgt>
<wgt id='3029'>0.81685E+02</wgt>
<wgt id='3030'>0.80913E+02</wgt>
<wgt id='3031'>0.80496E+02</wgt>
<wgt id='3032'>0.80685E+02</wgt>
<wgt id='3033'>0.80223E+02</wgt>
<wgt id='3034'>0.83319E+02</wgt>
<wgt id='3035'>0.79984E+02</wgt>
<wgt id='3036'>0.79928E+02</wgt>
<wgt id='3037'>0.79208E+02</wgt>
<wgt id='3038'>0.81348E+02</wgt>
<wgt id='3039'>0.79484E+02</wgt>
<wgt id='3040'>0.81781E+02</wgt>
<wgt id='3041'>0.82638E+02</wgt>
<wgt id='3042'>0.82479E+02</wgt>
<wgt id='3043'>0.82161E+02</wgt>
<wgt id='3044'>0.82959E+02</wgt>
<wgt id='3045'>0.82295E+02</wgt>
<wgt id='3046'>0.81317E+02</wgt>
<wgt id='3047'>0.80973E+02</wgt>
<wgt id='3048'>0.81864E+02</wgt>
<wgt id='3049'>0.79096E+02</wgt>
<wgt id='3050'>0.80620E+02</wgt>
<wgt id='3051'>0.80985E+02</wgt>
<wgt id='3052'>0.79523E+02</wgt>
<wgt id='3053'>0.81751E+02</wgt>
<wgt id='3054'>0.79336E+02</wgt>
<wgt id='3055'>0.81858E+02</wgt>
<wgt id='3056'>0.81202E+02</wgt>
<wgt id='3057'>0.79715E+02</wgt>
<wgt id='3058'>0.81335E+02</wgt>
<wgt id='3059'>0.81275E+02</wgt>
<wgt id='3060'>0.80445E+02</wgt>
<wgt id='3061'>0.80501E+02</wgt>
<wgt id='3062'>0.81315E+02</wgt>
<wgt id='3063'>0.81076E+02</wgt>
<wgt id='3064'>0.82934E+02</wgt>
<wgt id='3065'>0.80013E+02</wgt>
<wgt id='3066'>0.82571E+02</wgt>
<wgt id='3067'>0.80421E+02</wgt>
<wgt id='3068'>0.79998E+02</wgt>
<wgt id='3069'>0.81577E+02</wgt>
<wgt id='3070'>0.81720E+02</wgt>
<wgt id='3071'>0.80513E+02</wgt>
<wgt id='3072'>0.78798E+02</wgt>
<wgt id='3073'>0.81699E+02</wgt>
<wgt id='3074'>0.80289E+02</wgt>
<wgt id='3075'>0.82414E+02</wgt>
<wgt id='3076'>0.82367E+02</wgt>
<wgt id='3077'>0.82411E+02</wgt>
<wgt id='3078'>0.79273E+02</wgt>
<wgt id='3079'>0.81040E+02</wgt>
<wgt id='3080'>0.83313E+02</wgt>
<wgt id='3081'>0.81984E+02</wgt>
<wgt id='3082'>0.81342E+02</wgt>
<wgt id='3083'>0.81530E+02</wgt>
<wgt id='3084'>0.80563E+02</wgt>
<wgt id='3085'>0.78463E+02</wgt>
<wgt id='3086'>0.82319E+02</wgt>
<wgt id='3087'>0.80818E+02</wgt>
<wgt id='3088'>0.83206E+02</wgt>
<wgt id='3089'>0.84013E+02</wgt>
<wgt id='3090'>0.82998E+02</wgt>
<wgt id='3091'>0.82039E+02</wgt>
<wgt id='3092'>0.81681E+02</wgt>
<wgt id='3093'>0.81495E+02</wgt>
<wgt id='3094'>0.82153E+02</wgt>
<wgt id='3095'>0.81572E+02</wgt>
<wgt id='3096'>0.81178E+02</wgt>
<wgt id='3097'>0.83701E+02</wgt>
<wgt id='3098'>0.82222E+02</wgt>
<wgt id='3099'>0.80178E+02</wgt>
<wgt id='3100'>0.81083E+02</wgt>
<wgt id='3200'>0.77973E+02</wgt>
<wgt id='3201'>0.78088E+02</wgt>
<wgt id='3202'>0.75945E+02</wgt>
<wgt id='3203'>0.78546E+02</wgt>
<wgt id='3204'>0.76850E+02</wgt>
<wgt id='3205'>0.78193E+02</wgt>
<wgt id='3206'>0.79508E+02</wgt>
<wgt id='3207'>0.79158E+02</wgt>
<wgt id='3208'>0.78378E+02</wgt>
<wgt id='3209'>0.77694E+02</wgt>
<wgt id='3210'>0.78247E+02</wgt>
<wgt id='3211'>0.78457E+02</wgt>
<wgt id='3212'>0.77826E+02</wgt>
<wgt id='3213'>0.78575E+02</wgt>
<wgt id='3214'>0.77768E+02</wgt>
<wgt id='3215'>0.78159E+02</wgt>
<wgt id='3216'>0.78687E+02</wgt>
<wgt id='3217'>0.78699E+02</wgt>
<wgt id='3218'>0.78821E+02</wgt>
<wgt id='3219'>0.77886E+02</wgt>
<wgt id='3220'>0.77188E+02</wgt>
<wgt id='3221'>0.78237E+02</wgt>
<wgt id='3222'>0.79175E+02</wgt>
<wgt id='3223'>0.78556E+02</wgt>
<wgt id='3224'>0.78109E+02</wgt>
<wgt id='3225'>0.79082E+02</wgt>
<wgt id='3226'>0.77546E+02</wgt>
<wgt id='3227'>0.77009E+02</wgt>
<wgt id='3228'>0.77285E+02</wgt>
<wgt id='3229'>0.78646E+02</wgt>
<wgt id='3230'>0.78304E+02</wgt>
<wgt id='3231'>0.78320E+02</wgt>
<wgt id='3232'>0.78167E+02</wgt>
<wgt id='3233'>0.78662E+02</wgt>
<wgt id='3234'>0.77017E+02</wgt>
<wgt id='3235'>0.77692E+02</wgt>
<wgt id='3236'>0.77394E+02</wgt>
<wgt id='3237'>0.78345E+02</wgt>
<wgt id='3238'>0.76576E+02</wgt>
<wgt id='3239'>0.77791E+02</wgt>
<wgt id='3240'>0.76952E+02</wgt>
<wgt id='3241'>0.78951E+02</wgt>
<wgt id='3242'>0.77595E+02</wgt>
<wgt id='3243'>0.77349E+02</wgt>
<wgt id='3244'>0.78013E+02</wgt>
<wgt id='3245'>0.77953E+02</wgt>
<wgt id='3246'>0.76430E+02</wgt>
<wgt id='3247'>0.77813E+02</wgt>
<wgt id='3248'>0.77632E+02</wgt>
<wgt id='3249'>0.76665E+02</wgt>
<wgt id='3250'>0.78291E+02</wgt>
<wgt id='3251'>0.77519E+02</wgt>
<wgt id='3252'>0.78419E+02</wgt>
<wgt id='3253'>0.77426E+02</wgt>
<wgt id='3254'>0.77498E+02</wgt>
<wgt id='3255'>0.77392E+02</wgt>
<wgt id='3256'>0.78616E+02</wgt>
<wgt id='3257'>0.78157E+02</wgt>
<wgt id='3258'>0.77633E+02</wgt>
<wgt id='3259'>0.77267E+02</wgt>
<wgt id='3260'>0.77741E+02</wgt>
<wgt id='3261'>0.77604E+02</wgt>
<wgt id='3262'>0.78526E+02</wgt>
<wgt id='3263'>0.79512E+02</wgt>
<wgt id='3264'>0.77421E+02</wgt>
<wgt id='3265'>0.78068E+02</wgt>
<wgt id='3266'>0.78345E+02</wgt>
<wgt id='3267'>0.77879E+02</wgt>
<wgt id='3268'>0.77957E+02</wgt>
<wgt id='3269'>0.78211E+02</wgt>
<wgt id='3270'>0.79196E+02</wgt>
<wgt id='3271'>0.78464E+02</wgt>
<wgt id='3272'>0.78110E+02</wgt>
<wgt id='3273'>0.77789E+02</wgt>
<wgt id='3274'>0.77093E+02</wgt>
<wgt id='3275'>0.78566E+02</wgt>
<wgt id='3276'>0.77246E+02</wgt>
<wgt id='3277'>0.77782E+02</wgt>
<wgt id='3278'>0.78290E+02</wgt>
<wgt id='3279'>0.78104E+02</wgt>
<wgt id='3280'>0.77898E+02</wgt>
<wgt id='3281'>0.78545E+02</wgt>
<wgt id='3282'>0.78195E+02</wgt>
<wgt id='3283'>0.78261E+02</wgt>
<wgt id='3284'>0.77876E+02</wgt>
<wgt id='3285'>0.77838E+02</wgt>
<wgt id='3286'>0.76886E+02</wgt>
<wgt id='3287'>0.78909E+02</wgt>
<wgt id='3288'>0.77668E+02</wgt>
<wgt id='3289'>0.79128E+02</wgt>
<wgt id='3290'>0.77670E+02</wgt>
<wgt id='3291'>0.76632E+02</wgt>
<wgt id='3292'>0.77854E+02</wgt>
<wgt id='3293'>0.77968E+02</wgt>
<wgt id='3294'>0.77223E+02</wgt>
<wgt id='3295'>0.77886E+02</wgt>
<wgt id='3296'>0.78539E+02</wgt>
<wgt id='3297'>0.78087E+02</wgt>
<wgt id='3298'>0.77178E+02</wgt>
<wgt id='3299'>0.78142E+02</wgt>
<wgt id='3300'>0.78883E+02</wgt>
<wgt id='3301'>0.76776E+02</wgt>
<wgt id='3302'>0.78856E+02</wgt>
<wgt id='3400'>0.77483E+02</wgt>
<wgt id='3401'>0.77222E+02</wgt>
<wgt id='3402'>0.76018E+02</wgt>
<wgt id='3403'>0.78351E+02</wgt>
<wgt id='3404'>0.78767E+02</wgt>
<wgt id='3405'>0.77758E+02</wgt>
<wgt id='3406'>0.78739E+02</wgt>
<wgt id='3407'>0.77408E+02</wgt>
<wgt id='3408'>0.78312E+02</wgt>
<wgt id='3409'>0.78800E+02</wgt>
<wgt id='3410'>0.78245E+02</wgt>
<wgt id='3411'>0.78915E+02</wgt>
<wgt id='3412'>0.78089E+02</wgt>
<wgt id='3413'>0.77239E+02</wgt>
<wgt id='3414'>0.76715E+02</wgt>
<wgt id='3415'>0.77163E+02</wgt>
<wgt id='3416'>0.77104E+02</wgt>
<wgt id='3417'>0.77836E+02</wgt>
<wgt id='3418'>0.76713E+02</wgt>
<wgt id='3419'>0.76694E+02</wgt>
<wgt id='3420'>0.77207E+02</wgt>
<wgt id='3421'>0.77174E+02</wgt>
<wgt id='3422'>0.77516E+02</wgt>
<wgt id='3423'>0.77772E+02</wgt>
<wgt id='3424'>0.78008E+02</wgt>
<wgt id='3425'>0.77289E+02</wgt>
<wgt id='3426'>0.76840E+02</wgt>
<wgt id='3427'>0.76512E+02</wgt>
<wgt id='3428'>0.77904E+02</wgt>
<wgt id='3429'>0.76956E+02</wgt>
<wgt id='3430'>0.76981E+02</wgt>
<wgt id='3431'>0.77357E+02</wgt>
<wgt id='3432'>0.78215E+02</wgt>
<wgt id='3433'>0.76803E+02</wgt>
<wgt id='3434'>0.78048E+02</wgt>
<wgt id='3435'>0.78436E+02</wgt>
<wgt id='3436'>0.77052E+02</wgt>
<wgt id='3437'>0.77982E+02</wgt>
<wgt id='3438'>0.76900E+02</wgt>
<wgt id='3439'>0.76416E+02</wgt>
<wgt id='3440'>0.77946E+02</wgt>
<wgt id='3441'>0.77346E+02</wgt>
<wgt id='3442'>0.76500E+02</wgt>
<wgt id='3443'>0.77683E+02</wgt>
<wgt id='3444'>0.76632E+02</wgt>
<wgt id='3445'>0.77133E+02</wgt>
<wgt id='3446'>0.78014E+02</wgt>
<wgt id='3447'>0.77666E+02</wgt>
<wgt id='3448'>0.79079E+02</wgt>
<wgt id='3449'>0.78257E+02</wgt>
<wgt id='3450'>0.77432E+02</wgt>
<wgt id='3451'>0.78005E+02</wgt>
<wgt id='3452'>0.77416E+02</wgt>
<wgt id='3453'>0.76067E+02</wgt>
<wgt id='3454'>0.77339E+02</wgt>
<wgt id='3455'>0.78207E+02</wgt>
<wgt id='3456'>0.77684E+02</wgt>
<wgt id='3457'>0.78652E+02</wgt>
<wgt id='3458'>0.77648E+02</wgt>
<wgt id='3459'>0.77232E+02</wgt>
<wgt id='3460'>0.77270E+02</wgt>
<wgt id='3461'>0.76525E+02</wgt>
<wgt id='3462'>0.78138E+02</wgt>
<wgt id='3463'>0.76521E+02</wgt>
<wgt id='3464'>0.77739E+02</wgt>
<wgt id='3465'>0.78921E+02</wgt>
<wgt id='3466'>0.78062E+02</wgt>
<wgt id='3467'>0.77041E+02</wgt>
<wgt id='3468'>0.77368E+02</wgt>
<wgt id='3469'>0.77043E+02</wgt>
<wgt id='3470'>0.76729E+02</wgt>
<wgt id='3471'>0.77003E+02</wgt>
<wgt id='3472'>0.76348E+02</wgt>
<wgt id='3473'>0.78709E+02</wgt>
<wgt id='3474'>0.76787E+02</wgt>
<wgt id='3475'>0.78144E+02</wgt>
<wgt id='3476'>0.77060E+02</wgt>
<wgt id='3477'>0.76753E+02</wgt>
<wgt id='3478'>0.79059E+02</wgt>
<wgt id='3479'>0.77291E+02</wgt>
<wgt id='3480'>0.77921E+02</wgt>
<wgt id='3481'>0.77788E+02</wgt>
<wgt id='3482'>0.77897E+02</wgt>
<wgt id='3483'>0.76992E+02</wgt>
<wgt id='3484'>0.76969E+02</wgt>
<wgt id='3485'>0.77093E+02</wgt>
<wgt id='3486'>0.75669E+02</wgt>
<wgt id='3487'>0.77505E+02</wgt>
<wgt id='3488'>0.77248E+02</wgt>
<wgt id='3489'>0.76615E+02</wgt>
<wgt id='3490'>0.78393E+02</wgt>
<wgt id='3491'>0.78250E+02</wgt>
<wgt id='3492'>0.77077E+02</wgt>
<wgt id='3493'>0.78217E+02</wgt>
<wgt id='3494'>0.75344E+02</wgt>
<wgt id='3495'>0.78023E+02</wgt>
<wgt id='3496'>0.76841E+02</wgt>
<wgt id='3497'>0.77254E+02</wgt>
<wgt id='3498'>0.78571E+02</wgt>
<wgt id='3499'>0.76508E+02</wgt>
<wgt id='3500'>0.78331E+02</wgt>
</rwgt>
</event>
<event>
     13 322200  8.11039E+01  3.95360E+01 -1.00000E+00  1.42963E-01
      21    -1     0     0   502   503  0.000000000E+00  0.000000000E+00  3.585798927E+02  3.585798927E+02  0.000000000E+00  0.00000E+00  9.000E+00
      21    -1     0     0   503   504  0.000000000E+00  0.000000000E+00 -2.675121115E+02  2.675121115E+02  0.000000000E+00  0.00000E+00  9.000E+00
       6     2     1     2   502     0 -7.688747155E+01  6.068260093E+01  2.100308808E+02  2.886243733E+02  1.720377767E+02  0.00000E+00  9.000E+00
      -6     2     1     2     0   505  3.771190075E+01 -5.535596629E+01  2.638366519E+01  1.868396773E+02  1.724137372E+02  0.00000E+00  9.000E+00
      21     1     1     2   505   504  3.917557080E+01 -5.326634639E+00 -1.453467648E+02  1.506279536E+02  0.000000000E+00  0.00000E+00  9.000E+00
      24     2     3     3     0     0 -8.641914425E+01  4.407248338E+01  6.375520660E+01  1.410136513E+02  8.005917305E+01  0.00000E+00  9.000E+00
       5     1     3     3   502     0  9.531672707E+00  1.661011755E+01  1.462756742E+02  1.476107220E+02  5.060000000E+00  0.00000E+00 -1.000E+00
     -24     2     4     4     0     0 -4.227932005E+01 -6.527666091E+00  1.782352556E+01  9.259702298E+01  8.016470092E+01  0.00000E+00  9.000E+00
      -5     1     4     4     0   505  7.999122080E+01 -4.882830020E+01  8.560139637E+00  9.424265433E+01  5.060000000E+00  0.00000E+00  1.000E+00
     -15     1     6     6     0     0 -7.422708513E+01  6.549915449E+01  6.079216331E+01  1.161836660E+02  1.777000000E+00  0.00000E+00  1.000E+00
      16     1     6     6     0     0 -1.219205912E+01 -2.142667111E+01  2.963043284E+00  2.482998522E+01  0.000000000E+00  0.00000E+00 -1.000E+00
      11     1     8     8     0     0 -5.064360795E+01 -2.837467622E+00  4.256764129E+01  6.621805143E+01  5.100000000E-04  0.00000E+00 -1.000E+00
     -12     1     8     8     0     0  8.364287904E+00 -3.690198468E+00 -2.474411574E+01  2.637897156E+01  0.000000000E+00  0.00000E+00  1.000E+00
#rwgt            1           1   573.40910791371164               10       19043           0
<rwgt>
<wgt id='1001'>0.81104E+02</wgt>
<wgt id='1002'>0.76637E+02</wgt>
<wgt id='1003'>0.85577E+02</wgt>
<wgt id='1004'>0.70976E+02</wgt>
<wgt id='1005'>0.67156E+02</wgt>
<wgt id='1006'>0.74781E+02</wgt>
<wgt id='1007'>0.93309E+02</wgt>
<wgt id='1008'>0.88014E+02</wgt>
<wgt id='1009'>0.98648E+02</wgt>
<wgt id='2000'>0.81104E+02</wgt>
<wgt id='2001'>0.81207E+02</wgt>
<wgt id='2002'>0.80891E+02</wgt>
<wgt id='2003'>0.81062E+02</wgt>
<wgt id='2004'>0.81299E+02</wgt>
<wgt id='2005'>0.81216E+02</wgt>
<wgt id='2006'>0.81298E+02</wgt>
<wgt id='2007'>0.81370E+02</wgt>
<wgt id='2008'>0.81575E+02</wgt>
<wgt id='2009'>0.80983E+02</wgt>
<wgt id='2010'>0.81075E+02</wgt>
<wgt id='2011'>0.80697E+02</wgt>
<wgt id='2012'>0.81300E+02</wgt>
<wgt id='2013'>0.81175E+02</wgt>
<wgt id='2014'>0.81327E+02</wgt>
<wgt id='2015'>0.81256E+02</wgt>
<wgt id='2016'>0.81082E+02</wgt>
<wgt id='2017'>0.81060E+02</wgt>
<wgt id='2018'>0.81098E+02</wgt>
<wgt id='2019'>0.81390E+02</wgt>
<wgt id='2020'>0.80922E+02</wgt>
<wgt id='2021'>0.81068E+02</wgt>
<wgt id='2022'>0.81011E+02</wgt>
<wgt id='2023'>0.81062E+02</wgt>
<wgt id='2024'>0.81083E+02</wgt>
<wgt id='2025'>0.81076E+02</wgt>
<wgt id='2026'>0.81048E+02</wgt>
<wgt id='2027'>0.80835E+02</wgt>
<wgt id='2028'>0.81204E+02</wgt>
<wgt id='2029'>0.80818E+02</wgt>
<wgt id='2030'>0.81038E+02</wgt>
<wgt id='2031'>0.80862E+02</wgt>
<wgt id='2032'>0.81121E+02</wgt>
<wgt id='2033'>0.81017E+02</wgt>
<wgt id='2034'>0.80999E+02</wgt>
<wgt id='2035'>0.81114E+02</wgt>
<wgt id='2036'>0.81275E+02</wgt>
<wgt id='2037'>0.81095E+02</wgt>
<wgt id='2038'>0.81080E+02</wgt>
<wgt id='2039'>0.81105E+02</wgt>
<wgt id='2040'>0.81057E+02</wgt>
<wgt id='2041'>0.81109E+02</wgt>
<wgt id='2042'>0.81126E+02</wgt>
<wgt id='2043'>0.81057E+02</wgt>
<wgt id='2044'>0.81151E+02</wgt>
<wgt id='2045'>0.81129E+02</wgt>
<wgt id='2046'>0.81127E+02</wgt>
<wgt id='2047'>0.81076E+02</wgt>
<wgt id='2048'>0.81073E+02</wgt>
<wgt id='2049'>0.81051E+02</wgt>
<wgt id='2050'>0.81076E+02</wgt>
<wgt id='2051'>0.81101E+02</wgt>
<wgt id='2052'>0.81164E+02</wgt>
<wgt id='2053'>0.81094E+02</wgt>
<wgt id='2054'>0.81101E+02</wgt>
<wgt id='2055'>0.81122E+02</wgt>
<wgt id='2056'>0.81072E+02</wgt>
<wgt id='2057'>0.81132E+02</wgt>
<wgt id='2058'>0.81111E+02</wgt>
<wgt id='2059'>0.81115E+02</wgt>
<wgt id='2060'>0.81101E+02</wgt>
<wgt id='2061'>0.81090E+02</wgt>
<wgt id='2062'>0.81161E+02</wgt>
<wgt id='2063'>0.81120E+02</wgt>
<wgt id='2064'>0.81118E+02</wgt>
<wgt id='2065'>0.81166E+02</wgt>
<wgt id='2066'>0.81112E+02</wgt>
<wgt id='2067'>0.81128E+02</wgt>
<wgt id='2068'>0.81121E+02</wgt>
<wgt id='2069'>0.81106E+02</wgt>
<wgt id='2070'>0.81111E+02</wgt>
<wgt id='2071'>0.81111E+02</wgt>
<wgt id='2072'>0.81107E+02</wgt>
<wgt id='2073'>0.81120E+02</wgt>
<wgt id='2074'>0.81090E+02</wgt>
<wgt id='2075'>0.81094E+02</wgt>
<wgt id='2076'>0.81089E+02</wgt>
<wgt id='2077'>0.81150E+02</wgt>
<wgt id='2078'>0.81107E+02</wgt>
<wgt id='2079'>0.81087E+02</wgt>
<wgt id='2080'>0.81112E+02</wgt>
<wgt id='2081'>0.81093E+02</wgt>
<wgt id='2082'>0.81112E+02</wgt>
<wgt id='2083'>0.81129E+02</wgt>
<wgt id='2084'>0.81112E+02</wgt>
<wgt id='2085'>0.81102E+02</wgt>
<wgt id='2086'>0.81093E+02</wgt>
<wgt id='2087'>0.81110E+02</wgt>
<wgt id='2088'>0.81098E+02</wgt>
<wgt id='2089'>0.81099E+02</wgt>
<wgt id='2090'>0.81116E+02</wgt>
<wgt id='2091'>0.81105E+02</wgt>
<wgt id='2092'>0.81122E+02</wgt>
<wgt id='2093'>0.81090E+02</wgt>
<wgt id='2094'>0.81104E+02</wgt>
<wgt id='2095'>0.81113E+02</wgt>
<wgt id='2096'>0.81095E+02</wgt>
<wgt id='2097'>0.81110E+02</wgt>
<wgt id='2098'>0.81102E+02</wgt>
<wgt id='2099'>0.81114E+02</wgt>
<wgt id='2100'>0.81104E+02</wgt>
<wgt id='2101'>0.78918E+02</wgt>
<wgt id='2102'>0.83179E+02</wgt>
<wgt id='2200'>0.81144E+02</wgt>
<wgt id='2201'>0.71280E+02</wgt>
<wgt id='2202'>0.73081E+02</wgt>
<wgt id='2203'>0.75269E+02</wgt>
<wgt id='2204'>0.77321E+02</wgt>
<wgt id='2205'>0.80270E+02</wgt>
<wgt id='2206'>0.82322E+02</wgt>
<wgt id='2207'>0.84878E+02</wgt>
<wgt id='2208'>0.86895E+02</wgt>
<wgt id='2300'>0.84550E+02</wgt>
<wgt id='2301'>0.84682E+02</wgt>
<wgt id='2302'>0.84455E+02</wgt>
<wgt id='2303'>0.84678E+02</wgt>
<wgt id='2304'>0.84737E+02</wgt>
<wgt id='2305'>0.84809E+02</wgt>
<wgt id='2306'>0.84555E+02</wgt>
<wgt id='2307'>0.84800E+02</wgt>
<wgt id='2308'>0.84442E+02</wgt>
<wgt id='2309'>0.84759E+02</wgt>
<wgt id='2310'>0.84360E+02</wgt>
<wgt id='2311'>0.84472E+02</wgt>
<wgt id='2312'>0.84815E+02</wgt>
<wgt id='2313'>0.84404E+02</wgt>
<wgt id='2314'>0.84764E+02</wgt>
<wgt id='2315'>0.84521E+02</wgt>
<wgt id='2316'>0.84594E+02</wgt>
<wgt id='2317'>0.84760E+02</wgt>
<wgt id='2318'>0.84752E+02</wgt>
<wgt id='2319'>0.84306E+02</wgt>
<wgt id='2320'>0.84358E+02</wgt>
<wgt id='2321'>0.84266E+02</wgt>
<wgt id='2322'>0.84532E+02</wgt>
<wgt id='2323'>0.84383E+02</wgt>
<wgt id='2324'>0.84331E+02</wgt>
<wgt id='2325'>0.84586E+02</wgt>
<wgt id='2326'>0.84684E+02</wgt>
<wgt id='2327'>0.84578E+02</wgt>
<wgt id='2328'>0.84276E+02</wgt>
<wgt id='2329'>0.84410E+02</wgt>
<wgt id='2330'>0.84781E+02</wgt>
<wgt id='2331'>0.84662E+02</wgt>
<wgt id='2332'>0.84641E+02</wgt>
<wgt id='2333'>0.84704E+02</wgt>
<wgt id='2334'>0.84594E+02</wgt>
<wgt id='2335'>0.84735E+02</wgt>
<wgt id='2336'>0.84600E+02</wgt>
<wgt id='2337'>0.84543E+02</wgt>
<wgt id='2338'>0.84559E+02</wgt>
<wgt id='2339'>0.84504E+02</wgt>
<wgt id='2340'>0.84535E+02</wgt>
<wgt id='2341'>0.84604E+02</wgt>
<wgt id='2342'>0.84464E+02</wgt>
<wgt id='2343'>0.84468E+02</wgt>
<wgt id='2344'>0.84560E+02</wgt>
<wgt id='2345'>0.84609E+02</wgt>
<wgt id='2346'>0.84616E+02</wgt>
<wgt id='2347'>0.84547E+02</wgt>
<wgt id='2348'>0.84590E+02</wgt>
<wgt id='2349'>0.84539E+02</wgt>
<wgt id='2350'>0.84535E+02</wgt>
<wgt id='2351'>0.84635E+02</wgt>
<wgt id='2352'>0.84509E+02</wgt>
<wgt id='2353'>0.84518E+02</wgt>
<wgt id='2354'>0.84543E+02</wgt>
<wgt id='2355'>0.84481E+02</wgt>
<wgt id='2356'>0.84560E+02</wgt>
<wgt id='2357'>0.84513E+02</wgt>
<wgt id='2358'>0.84510E+02</wgt>
<wgt id='2359'>0.84543E+02</wgt>
<wgt id='2360'>0.84567E+02</wgt>
<wgt id='2361'>0.84546E+02</wgt>
<wgt id='2362'>0.84565E+02</wgt>
<wgt id='2363'>0.84589E+02</wgt>
<wgt id='2364'>0.84529E+02</wgt>
<wgt id='2365'>0.84550E+02</wgt>
<wgt id='2366'>0.84561E+02</wgt>
<wgt id='2367'>0.84522E+02</wgt>
<wgt id='2368'>0.84559E+02</wgt>
<wgt id='2369'>0.84534E+02</wgt>
<wgt id='2370'>0.84564E+02</wgt>
<wgt id='2371'>0.84544E+02</wgt>
<wgt id='2372'>0.84551E+02</wgt>
<wgt id='2373'>0.84520E+02</wgt>
<wgt id='2374'>0.84587E+02</wgt>
<wgt id='2375'>0.84546E+02</wgt>
<wgt id='2376'>0.84550E+02</wgt>
<wgt id='2377'>0.84562E+02</wgt>
<wgt id='2378'>0.84561E+02</wgt>
<wgt id='2379'>0.84540E+02</wgt>
<wgt id='2380'>0.84536E+02</wgt>
<wgt id='2381'>0.84545E+02</wgt>
<wgt id='2382'>0.84534E+02</wgt>
<wgt id='2383'>0.84561E+02</wgt>
<wgt id='2384'>0.84549E+02</wgt>
<wgt id='2385'>0.84560E+02</wgt>
<wgt id='2386'>0.84550E+02</wgt>
<wgt id='2387'>0.84544E+02</wgt>
<wgt id='2388'>0.84547E+02</wgt>
<wgt id='2389'>0.84551E+02</wgt>
<wgt id='2390'>0.84558E+02</wgt>
<wgt id='2391'>0.84547E+02</wgt>
<wgt id='2392'>0.84547E+02</wgt>
<wgt id='2393'>0.84556E+02</wgt>
<wgt id='2394'>0.84564E+02</wgt>
<wgt id='2395'>0.84551E+02</wgt>
<wgt id='2396'>0.84534E+02</wgt>
<wgt id='2397'>0.84535E+02</wgt>
<wgt id='2398'>0.84538E+02</wgt>
<wgt id='2399'>0.84556E+02</wgt>
<wgt id='2400'>0.84555E+02</wgt>
<wgt id='2401'>0.82367E+02</wgt>
<wgt id='2402'>0.86792E+02</wgt>
<wgt id='2500'>0.80861E+02</wgt>
<wgt id='2501'>0.85219E+02</wgt>
<wgt id='2600'>0.78813E+02</wgt>
<wgt id='2601'>0.78766E+02</wgt>
<wgt id='2602'>0.78816E+02</wgt>
<wgt id='2603'>0.78773E+02</wgt>
<wgt id='2604'>0.78947E+02</wgt>
<wgt id='2605'>0.78701E+02</wgt>
<wgt id='2606'>0.78595E+02</wgt>
<wgt id='2607'>0.78990E+02</wgt>
<wgt id='2608'>0.78718E+02</wgt>
<wgt id='2609'>0.78770E+02</wgt>
<wgt id='2610'>0.78772E+02</wgt>
<wgt id='2611'>0.78749E+02</wgt>
<wgt id='2612'>0.79116E+02</wgt>
<wgt id='2613'>0.78783E+02</wgt>
<wgt id='2614'>0.78801E+02</wgt>
<wgt id='2615'>0.78709E+02</wgt>
<wgt id='2616'>0.78790E+02</wgt>
<wgt id='2617'>0.78714E+02</wgt>
<wgt id='2618'>0.78655E+02</wgt>
<wgt id='2619'>0.78851E+02</wgt>
<wgt id='2620'>0.78836E+02</wgt>
<wgt id='2621'>0.78789E+02</wgt>
<wgt id='2622'>0.78864E+02</wgt>
<wgt id='2623'>0.78812E+02</wgt>
<wgt id='2624'>0.78821E+02</wgt>
<wgt id='2625'>0.78764E+02</wgt>
<wgt id='2626'>0.78804E+02</wgt>
<wgt id='2627'>0.78784E+02</wgt>
<wgt id='2628'>0.78825E+02</wgt>
<wgt id='2629'>0.78811E+02</wgt>
<wgt id='2630'>0.78803E+02</wgt>
<wgt id='2631'>0.78813E+02</wgt>
<wgt id='2632'>0.78818E+02</wgt>
<wgt id='2633'>0.78811E+02</wgt>
<wgt id='2634'>0.78822E+02</wgt>
<wgt id='2635'>0.78808E+02</wgt>
<wgt id='2636'>0.78806E+02</wgt>
<wgt id='2637'>0.78810E+02</wgt>
<wgt id='2638'>0.78818E+02</wgt>
<wgt id='2639'>0.78812E+02</wgt>
<wgt id='2640'>0.78816E+02</wgt>
<wgt id='2641'>0.78813E+02</wgt>
<wgt id='2642'>0.78814E+02</wgt>
<wgt id='2643'>0.78819E+02</wgt>
<wgt id='2644'>0.78811E+02</wgt>
<wgt id='2645'>0.78812E+02</wgt>
<wgt id='2646'>0.78801E+02</wgt>
<wgt id='2647'>0.78818E+02</wgt>
<wgt id='2648'>0.78816E+02</wgt>
<wgt id='2649'>0.78817E+02</wgt>
<wgt id='2650'>0.78813E+02</wgt>
<wgt id='2651'>0.77460E+02</wgt>
<wgt id='2652'>0.80080E+02</wgt>
<wgt id='2700'>0.76148E+02</wgt>
<wgt id='2701'>0.77460E+02</wgt>
<wgt id='2702'>0.78180E+02</wgt>
<wgt id='2703'>0.79375E+02</wgt>
<wgt id='2704'>0.80080E+02</wgt>
<wgt id='2705'>0.81273E+02</wgt>
<wgt id='2800'>0.80021E+02</wgt>
<wgt id='4000'>0.79277E+02</wgt>
<wgt id='4001'>0.79605E+02</wgt>
<wgt id='4002'>0.79112E+02</wgt>
<wgt id='4003'>0.79924E+02</wgt>
<wgt id='4004'>0.78431E+02</wgt>
<wgt id='4005'>0.78791E+02</wgt>
<wgt id='4006'>0.79645E+02</wgt>
<wgt id='4007'>0.80270E+02</wgt>
<wgt id='4008'>0.78274E+02</wgt>
<wgt id='4009'>0.79815E+02</wgt>
<wgt id='4010'>0.78880E+02</wgt>
<wgt id='4011'>0.79511E+02</wgt>
<wgt id='4012'>0.79035E+02</wgt>
<wgt id='4013'>0.79740E+02</wgt>
<wgt id='4014'>0.78843E+02</wgt>
<wgt id='4015'>0.79003E+02</wgt>
<wgt id='4016'>0.79186E+02</wgt>
<wgt id='4017'>0.79172E+02</wgt>
<wgt id='4018'>0.79417E+02</wgt>
<wgt id='4019'>0.79826E+02</wgt>
<wgt id='4020'>0.78382E+02</wgt>
<wgt id='4021'>0.79288E+02</wgt>
<wgt id='4022'>0.79225E+02</wgt>
<wgt id='4023'>0.78812E+02</wgt>
<wgt id='4024'>0.79619E+02</wgt>
<wgt id='4025'>0.79547E+02</wgt>
<wgt id='4026'>0.78561E+02</wgt>
<wgt id='4027'>0.79021E+02</wgt>
<wgt id='4028'>0.79475E+02</wgt>
<wgt id='4029'>0.78248E+02</wgt>
<wgt id='4030'>0.79629E+02</wgt>
<wgt id='4031'>0.79273E+02</wgt>
<wgt id='4032'>0.78604E+02</wgt>
<wgt id='4033'>0.78971E+02</wgt>
<wgt id='4034'>0.79393E+02</wgt>
<wgt id='4035'>0.80039E+02</wgt>
<wgt id='4036'>0.78631E+02</wgt>
<wgt id='4037'>0.80164E+02</wgt>
<wgt id='4038'>0.78456E+02</wgt>
<wgt id='4039'>0.80362E+02</wgt>
<wgt id='4040'>0.78095E+02</wgt>
<wgt id='4041'>0.79117E+02</wgt>
<wgt id='4042'>0.79350E+02</wgt>
<wgt id='4043'>0.78282E+02</wgt>
<wgt id='4044'>0.79760E+02</wgt>
<wgt id='4045'>0.81125E+02</wgt>
<wgt id='4046'>0.78376E+02</wgt>
<wgt id='4047'>0.78120E+02</wgt>
<wgt id='4048'>0.79661E+02</wgt>
<wgt id='4049'>0.79053E+02</wgt>
<wgt id='4050'>0.79390E+02</wgt>
<wgt id='4051'>0.80511E+02</wgt>
<wgt id='4052'>0.78066E+02</wgt>
<wgt id='4053'>0.80141E+02</wgt>
<wgt id='4054'>0.78186E+02</wgt>
<wgt id='4055'>0.79608E+02</wgt>
<wgt id='4056'>0.78818E+02</wgt>
<wgt id='4057'>0.78530E+02</wgt>
<wgt id='4058'>0.79794E+02</wgt>
<wgt id='4100'>0.80172E+02</wgt>
<wgt id='4101'>0.79751E+02</wgt>
<wgt id='4102'>0.78763E+02</wgt>
<wgt id='4103'>0.78221E+02</wgt>
<wgt id='4200'>0.76286E+02</wgt>
<wgt id='4201'>0.76411E+02</wgt>
<wgt id='4202'>0.76332E+02</wgt>
<wgt id='4203'>0.75737E+02</wgt>
<wgt id='4204'>0.76749E+02</wgt>
<wgt id='4205'>0.76267E+02</wgt>
<wgt id='4206'>0.76349E+02</wgt>
<wgt id='4207'>0.76026E+02</wgt>
<wgt id='4208'>0.76477E+02</wgt>
<wgt id='4209'>0.76403E+02</wgt>
<wgt id='4210'>0.76287E+02</wgt>
<wgt id='4211'>0.77231E+02</wgt>
<wgt id='4212'>0.75526E+02</wgt>
<wgt id='4213'>0.76401E+02</wgt>
<wgt id='4214'>0.76094E+02</wgt>
<wgt id='4215'>0.76437E+02</wgt>
<wgt id='4216'>0.75794E+02</wgt>
<wgt id='4217'>0.75919E+02</wgt>
<wgt id='4218'>0.76563E+02</wgt>
<wgt id='4219'>0.75267E+02</wgt>
<wgt id='4220'>0.77167E+02</wgt>
<wgt id='4221'>0.75697E+02</wgt>
<wgt id='4222'>0.76883E+02</wgt>
<wgt id='4223'>0.77002E+02</wgt>
<wgt id='4224'>0.75605E+02</wgt>
<wgt id='4225'>0.74788E+02</wgt>
<wgt id='4226'>0.77565E+02</wgt>
<wgt id='4227'>0.76637E+02</wgt>
<wgt id='4228'>0.75975E+02</wgt>
<wgt id='4229'>0.75955E+02</wgt>
<wgt id='4230'>0.76459E+02</wgt>
<wgt id='4231'>0.76167E+02</wgt>
<wgt id='4232'>0.76396E+02</wgt>
<wgt id='4233'>0.76530E+02</wgt>
<wgt id='4234'>0.75963E+02</wgt>
<wgt id='4235'>0.76599E+02</wgt>
<wgt id='4236'>0.76003E+02</wgt>
<wgt id='4237'>0.76238E+02</wgt>
<wgt id='4238'>0.76233E+02</wgt>
<wgt id='4239'>0.77206E+02</wgt>
<wgt id='4240'>0.74763E+02</wgt>
<wgt id='4241'>0.75788E+02</wgt>
<wgt id='4242'>0.76824E+02</wgt>
<wgt id='4243'>0.76275E+02</wgt>
<wgt id='4244'>0.76380E+02</wgt>
<wgt id='4245'>0.75359E+02</wgt>
<wgt id='4246'>0.77235E+02</wgt>
<wgt id='4247'>0.76021E+02</wgt>
<wgt id='4248'>0.76435E+02</wgt>
<wgt id='4249'>0.77289E+02</wgt>
<wgt id='4250'>0.75067E+02</wgt>
<wgt id='4251'>0.75121E+02</wgt>
<wgt id='4252'>0.76934E+02</wgt>
<wgt id='4253'>0.75781E+02</wgt>
<wgt id='4254'>0.76669E+02</wgt>
<wgt id='4255'>0.76307E+02</wgt>
<wgt id='4256'>0.76127E+02</wgt>
<wgt id='4257'>0.74868E+02</wgt>
<wgt id='4258'>0.76699E+02</wgt>
<wgt id='4300'>0.78489E+02</wgt>
<wgt id='4301'>0.77583E+02</wgt>
<wgt id='5000'>0.79021E+02</wgt>
<wgt id='5001'>0.79051E+02</wgt>
<wgt id='5002'>0.78983E+02</wgt>
<wgt id='5003'>0.79040E+02</wgt>
<wgt id='5004'>0.79004E+02</wgt>
<wgt id='5005'>0.79017E+02</wgt>
<wgt id='5006'>0.79028E+02</wgt>
<wgt id='5007'>0.79071E+02</wgt>
<wgt id='5008'>0.78981E+02</wgt>
<wgt id='5009'>0.79121E+02</wgt>
<wgt id='5010'>0.78919E+02</wgt>
<wgt id='5011'>0.79175E+02</wgt>
<wgt id='5012'>0.78873E+02</wgt>
<wgt id='5013'>0.79122E+02</wgt>
<wgt id='5014'>0.78950E+02</wgt>
<wgt id='5015'>0.78641E+02</wgt>
<wgt id='5016'>0.78641E+02</wgt>
<wgt id='5017'>0.79476E+02</wgt>
<wgt id='5018'>0.78714E+02</wgt>
<wgt id='5019'>0.79341E+02</wgt>
<wgt id='5020'>0.78584E+02</wgt>
<wgt id='5021'>0.79122E+02</wgt>
<wgt id='5022'>0.78864E+02</wgt>
<wgt id='5023'>0.78915E+02</wgt>
<wgt id='5024'>0.79275E+02</wgt>
<wgt id='5025'>0.78684E+02</wgt>
<wgt id='5026'>0.79402E+02</wgt>
<wgt id='5027'>0.79049E+02</wgt>
<wgt id='5028'>0.78947E+02</wgt>
<wgt id='5029'>0.79545E+02</wgt>
<wgt id='5030'>0.78723E+02</wgt>
<wgt id='5031'>0.78783E+02</wgt>
<wgt id='5032'>0.79735E+02</wgt>
<wgt id='5033'>0.79039E+02</wgt>
<wgt id='5034'>0.79003E+02</wgt>
<wgt id='5035'>0.79021E+02</wgt>
<wgt id='5036'>0.79024E+02</wgt>
<wgt id='5037'>0.78956E+02</wgt>
<wgt id='5038'>0.79059E+02</wgt>
<wgt id='5039'>0.79228E+02</wgt>
<wgt id='5040'>0.78513E+02</wgt>
<wgt id='5041'>0.79363E+02</wgt>
<wgt id='5042'>0.78682E+02</wgt>
<wgt id='5043'>0.79092E+02</wgt>
<wgt id='5044'>0.79007E+02</wgt>
<wgt id='5045'>0.78879E+02</wgt>
<wgt id='5046'>0.79155E+02</wgt>
<wgt id='5047'>0.79049E+02</wgt>
<wgt id='5048'>0.78902E+02</wgt>
<wgt id='5049'>0.78993E+02</wgt>
<wgt id='5050'>0.79074E+02</wgt>
<wgt id='5051'>0.79139E+02</wgt>
<wgt id='5052'>0.78904E+02</wgt>
<wgt id='5053'>0.78834E+02</wgt>
<wgt id='5054'>0.79149E+02</wgt>
<wgt id='5055'>0.79095E+02</wgt>
<wgt id='5056'>0.79031E+02</wgt>
<wgt id='5057'>0.78797E+02</wgt>
<wgt id='5058'>0.79177E+02</wgt>
<wgt id='5059'>0.79013E+02</wgt>
<wgt id='5060'>0.79037E+02</wgt>
<wgt id='5061'>0.79214E+02</wgt>
<wgt id='5062'>0.79027E+02</wgt>
<wgt id='5063'>0.79268E+02</wgt>
<wgt id='5064'>0.78971E+02</wgt>
<wgt id='5100'>0.79021E+02</wgt>
<wgt id='5101'>0.79054E+02</wgt>
<wgt id='6000'>0.79270E+02</wgt>
<wgt id='6001'>0.79443E+02</wgt>
<wgt id='6002'>0.79462E+02</wgt>
<wgt id='6003'>0.79246E+02</wgt>
<wgt id='6004'>0.79176E+02</wgt>
<wgt id='6005'>0.79188E+02</wgt>
<wgt id='6006'>0.79528E+02</wgt>
<wgt id='6007'>0.79175E+02</wgt>
<wgt id='6008'>0.78354E+02</wgt>
<wgt id='6009'>0.79546E+02</wgt>
<wgt id='6010'>0.78249E+02</wgt>
<wgt id='6011'>0.79233E+02</wgt>
<wgt id='6012'>0.79513E+02</wgt>
<wgt id='6013'>0.79063E+02</wgt>
<wgt id='6014'>0.79234E+02</wgt>
<wgt id='6015'>0.78826E+02</wgt>
<wgt id='6016'>0.79308E+02</wgt>
<wgt id='6017'>0.79294E+02</wgt>
<wgt id='6018'>0.79178E+02</wgt>
<wgt id='6019'>0.79296E+02</wgt>
<wgt id='6020'>0.79447E+02</wgt>
<wgt id='6021'>0.79338E+02</wgt>
<wgt id='6022'>0.79261E+02</wgt>
<wgt id='6023'>0.79299E+02</wgt>
<wgt id='6024'>0.79333E+02</wgt>
<wgt id='6025'>0.79479E+02</wgt>
<wgt id='6026'>0.79311E+02</wgt>
<wgt id='6027'>0.79297E+02</wgt>
<wgt id='6028'>0.79155E+02</wgt>
<wgt id='6029'>0.79169E+02</wgt>
<wgt id='6030'>0.79886E+02</wgt>
<wgt id='6031'>0.79125E+02</wgt>
<wgt id='6032'>0.79308E+02</wgt>
<wgt id='6033'>0.79181E+02</wgt>
<wgt id='6034'>0.79453E+02</wgt>
<wgt id='6035'>0.79312E+02</wgt>
<wgt id='6036'>0.79642E+02</wgt>
<wgt id='6037'>0.79282E+02</wgt>
<wgt id='6038'>0.79325E+02</wgt>
<wgt id='6039'>0.79369E+02</wgt>
<wgt id='6040'>0.79266E+02</wgt>
<wgt id='6041'>0.78292E+02</wgt>
<wgt id='6042'>0.80070E+02</wgt>
<wgt id='7000'>0.78952E+02</wgt>
<wgt id='7001'>0.78575E+02</wgt>
<wgt id='7002'>0.78735E+02</wgt>
<wgt id='7003'>0.78653E+02</wgt>
<wgt id='7004'>0.78657E+02</wgt>
<wgt id='7005'>0.78782E+02</wgt>
<wgt id='7006'>0.78528E+02</wgt>
<wgt id='7007'>0.79130E+02</wgt>
<wgt id='7008'>0.78193E+02</wgt>
<wgt id='7009'>0.78403E+02</wgt>
<wgt id='7010'>0.78917E+02</wgt>
<wgt id='7011'>0.78914E+02</wgt>
<wgt id='7012'>0.78398E+02</wgt>
<wgt id='7013'>0.78497E+02</wgt>
<wgt id='7014'>0.78806E+02</wgt>
<wgt id='7015'>0.78533E+02</wgt>
<wgt id='7016'>0.78571E+02</wgt>
<wgt id='7017'>0.78674E+02</wgt>
<wgt id='7018'>0.78635E+02</wgt>
<wgt id='7019'>0.78486E+02</wgt>
<wgt id='7020'>0.78830E+02</wgt>
<wgt id='7021'>0.78532E+02</wgt>
<wgt id='7022'>0.78741E+02</wgt>
<wgt id='7023'>0.78465E+02</wgt>
<wgt id='7024'>0.78855E+02</wgt>
<wgt id='7025'>0.77936E+02</wgt>
<wgt id='7026'>0.79276E+02</wgt>
<wgt id='7027'>0.78401E+02</wgt>
<wgt id='7028'>0.78967E+02</wgt>
<wgt id='8000'>0.79712E+02</wgt>
<wgt id='8001'>0.79700E+02</wgt>
<wgt id='8002'>0.79737E+02</wgt>
<wgt id='8003'>0.79716E+02</wgt>
<wgt id='8004'>0.79710E+02</wgt>
<wgt id='8005'>0.79556E+02</wgt>
<wgt id='8006'>0.79763E+02</wgt>
<wgt id='8007'>0.79813E+02</wgt>
<wgt id='8008'>0.79886E+02</wgt>
<wgt id='8009'>0.80042E+02</wgt>
<wgt id='8010'>0.79643E+02</wgt>
<wgt id='8011'>0.79712E+02</wgt>
<wgt id='8012'>0.79456E+02</wgt>
<wgt id='8013'>0.79587E+02</wgt>
<wgt id='8014'>0.79848E+02</wgt>
<wgt id='8015'>0.79665E+02</wgt>
<wgt id='8016'>0.79771E+02</wgt>
<wgt id='8017'>0.79744E+02</wgt>
<wgt id='8018'>0.79853E+02</wgt>
<wgt id='8019'>0.79814E+02</wgt>
<wgt id='8020'>0.79574E+02</wgt>
<wgt id='8021'>0.79672E+02</wgt>
<wgt id='8022'>0.79455E+02</wgt>
<wgt id='8023'>0.79697E+02</wgt>
<wgt id='8024'>0.79612E+02</wgt>
<wgt id='8025'>0.79799E+02</wgt>
<wgt id='8026'>0.79847E+02</wgt>
<wgt id='8027'>0.79702E+02</wgt>
<wgt id='8028'>0.79778E+02</wgt>
<wgt id='8029'>0.79377E+02</wgt>
<wgt id='3000'>0.81104E+02</wgt>
<wgt id='3001'>0.80451E+02</wgt>
<wgt id='3002'>0.80178E+02</wgt>
<wgt id='3003'>0.82478E+02</wgt>
<wgt id='3004'>0.81817E+02</wgt>
<wgt id='3005'>0.80960E+02</wgt>
<wgt id='3006'>0.83332E+02</wgt>
<wgt id='3007'>0.80600E+02</wgt>
<wgt id='3008'>0.80222E+02</wgt>
<wgt id='3009'>0.82103E+02</wgt>
<wgt id='3010'>0.82742E+02</wgt>
<wgt id='3011'>0.82632E+02</wgt>
<wgt id='3012'>0.81069E+02</wgt>
<wgt id='3013'>0.80389E+02</wgt>
<wgt id='3014'>0.80159E+02</wgt>
<wgt id='3015'>0.81721E+02</wgt>
<wgt id='3016'>0.82402E+02</wgt>
<wgt id='3017'>0.82714E+02</wgt>
<wgt id='3018'>0.80713E+02</wgt>
<wgt id='3019'>0.79774E+02</wgt>
<wgt id='3020'>0.80927E+02</wgt>
<wgt id='3021'>0.79505E+02</wgt>
<wgt id='3022'>0.79551E+02</wgt>
<wgt id='3023'>0.79717E+02</wgt>
<wgt id='3024'>0.79740E+02</wgt>
<wgt id='3025'>0.79800E+02</wgt>
<wgt id='3026'>0.80879E+02</wgt>
<wgt id='3027'>0.79998E+02</wgt>
<wgt id='3028'>0.81155E+02</wgt>
<wgt id='3029'>0.82419E+02</wgt>
<wgt id='3030'>0.82786E+02</wgt>
<wgt id='3031'>0.81681E+02</wgt>
<wgt id='3032'>0.82192E+02</wgt>
<wgt id='3033'>0.80235E+02</wgt>
<wgt id='3034'>0.80721E+02</wgt>
<wgt id='3035'>0.82519E+02</wgt>
<wgt id='3036'>0.81220E+02</wgt>
<wgt id='3037'>0.81212E+02</wgt>
<wgt id='3038'>0.80773E+02</wgt>
<wgt id='3039'>0.81449E+02</wgt>
<wgt id='3040'>0.80891E+02</wgt>
<wgt id='3041'>0.81560E+02</wgt>
<wgt id='3042'>0.80187E+02</wgt>
<wgt id='3043'>0.80959E+02</wgt>
<wgt id='3044'>0.80482E+02</wgt>
<wgt id='3045'>0.81268E+02</wgt>
<wgt id='3046'>0.81688E+02</wgt>
<wgt id='3047'>0.79356E+02</wgt>
<wgt id='3048'>0.79271E+02</wgt>
<wgt id='3049'>0.81826E+02</wgt>
<wgt id='3050'>0.82573E+02</wgt>
<wgt id='3051'>0.81144E+02</wgt>
<wgt id='3052'>0.80134E+02</wgt>
<wgt id='3053'>0.80774E+02</wgt>
<wgt id='3054'>0.80953E+02</wgt>
<wgt id='3055'>0.79496E+02</wgt>
<wgt id='3056'>0.80622E+02</wgt>
<wgt id='3057'>0.80553E+02</wgt>
<wgt id='3058'>0.79612E+02</wgt>
<wgt id='3059'>0.83099E+02</wgt>
<wgt id='3060'>0.81404E+02</wgt>
<wgt id='3061'>0.80984E+02</wgt>
<wgt id='3062'>0.80752E+02</wgt>
<wgt id='3063'>0.79376E+02</wgt>
<wgt id='3064'>0.80594E+02</wgt>
<wgt id='3065'>0.80500E+02</wgt>
<wgt id='3066'>0.81330E+02</wgt>
<wgt id='3067'>0.79298E+02</wgt>
<wgt id='3068'>0.82018E+02</wgt>
<wgt id='3069'>0.80572E+02</wgt>
<wgt id='3070'>0.79497E+02</wgt>
<wgt id='3071'>0.82676E+02</wgt>
<wgt id='3072'>0.81536E+02</wgt>
<wgt id='3073'>0.82146E+02</wgt>
<wgt id='3074'>0.82522E+02</wgt>
<wgt id='3075'>0.82450E+02</wgt>
<wgt id='3076'>0.82857E+02</wgt>
<wgt id='3077'>0.80167E+02</wgt>
<wgt id='3078'>0.81872E+02</wgt>
<wgt id='3079'>0.81167E+02</wgt>
<wgt id='3080'>0.80777E+02</wgt>
<wgt id='3081'>0.79265E+02</wgt>
<wgt id='3082'>0.82402E+02</wgt>
<wgt id='3083'>0.81043E+02</wgt>
<wgt id='3084'>0.81195E+02</wgt>
<wgt id='3085'>0.82400E+02</wgt>
<wgt id='3086'>0.79205E+02</wgt>
<wgt id='3087'>0.81952E+02</wgt>
<wgt id='3088'>0.82209E+02</wgt>
<wgt id='3089'>0.84025E+02</wgt>
<wgt id='3090'>0.80728E+02</wgt>
<wgt id='3091'>0.80315E+02</wgt>
<wgt id='3092'>0.82621E+02</wgt>
<wgt id='3093'>0.81949E+02</wgt>
<wgt id='3094'>0.80929E+02</wgt>
<wgt id='3095'>0.80816E+02</wgt>
<wgt id='3096'>0.80323E+02</wgt>
<wgt id='3097'>0.80031E+02</wgt>
<wgt id='3098'>0.81956E+02</wgt>
<wgt id='3099'>0.80452E+02</wgt>
<wgt id='3100'>0.80842E+02</wgt>
<wgt id='3200'>0.78814E+02</wgt>
<wgt id='3201'>0.79150E+02</wgt>
<wgt id='3202'>0.77981E+02</wgt>
<wgt id='3203'>0.78655E+02</wgt>
<wgt id='3204'>0.78231E+02</wgt>
<wgt id='3205'>0.79317E+02</wgt>
<wgt id='3206'>0.79203E+02</wgt>
<wgt id='3207'>0.79474E+02</wgt>
<wgt id='3208'>0.79284E+02</wgt>
<wgt id='3209'>0.78642E+02</wgt>
<wgt id='3210'>0.78759E+02</wgt>
<wgt id='3211'>0.79793E+02</wgt>
<wgt id='3212'>0.78012E+02</wgt>
<wgt id='3213'>0.78345E+02</wgt>
<wgt id='3214'>0.77890E+02</wgt>
<wgt id='3215'>0.78818E+02</wgt>
<wgt id='3216'>0.79245E+02</wgt>
<wgt id='3217'>0.79202E+02</wgt>
<wgt id='3218'>0.78938E+02</wgt>
<wgt id='3219'>0.78974E+02</wgt>
<wgt id='3220'>0.78069E+02</wgt>
<wgt id='3221'>0.79531E+02</wgt>
<wgt id='3222'>0.79521E+02</wgt>
<wgt id='3223'>0.78833E+02</wgt>
<wgt id='3224'>0.78468E+02</wgt>
<wgt id='3225'>0.79350E+02</wgt>
<wgt id='3226'>0.78798E+02</wgt>
<wgt id='3227'>0.78071E+02</wgt>
<wgt id='3228'>0.78185E+02</wgt>
<wgt id='3229'>0.79257E+02</wgt>
<wgt id='3230'>0.79353E+02</wgt>
<wgt id='3231'>0.79043E+02</wgt>
<wgt id='3232'>0.79218E+02</wgt>
<wgt id='3233'>0.79027E+02</wgt>
<wgt id='3234'>0.78987E+02</wgt>
<wgt id='3235'>0.78318E+02</wgt>
<wgt id='3236'>0.78122E+02</wgt>
<wgt id='3237'>0.78556E+02</wgt>
<wgt id='3238'>0.78678E+02</wgt>
<wgt id='3239'>0.78519E+02</wgt>
<wgt id='3240'>0.78914E+02</wgt>
<wgt id='3241'>0.79508E+02</wgt>
<wgt id='3242'>0.78053E+02</wgt>
<wgt id='3243'>0.78039E+02</wgt>
<wgt id='3244'>0.78534E+02</wgt>
<wgt id='3245'>0.79314E+02</wgt>
<wgt id='3246'>0.78244E+02</wgt>
<wgt id='3247'>0.78614E+02</wgt>
<wgt id='3248'>0.78442E+02</wgt>
<wgt id='3249'>0.78642E+02</wgt>
<wgt id='3250'>0.79357E+02</wgt>
<wgt id='3251'>0.78797E+02</wgt>
<wgt id='3252'>0.78860E+02</wgt>
<wgt id='3253'>0.78873E+02</wgt>
<wgt id='3254'>0.78896E+02</wgt>
<wgt id='3255'>0.78736E+02</wgt>
<wgt id='3256'>0.78100E+02</wgt>
<wgt id='3257'>0.78742E+02</wgt>
<wgt id='3258'>0.79203E+02</wgt>
<wgt id='3259'>0.78822E+02</wgt>
<wgt id='3260'>0.78690E+02</wgt>
<wgt id='3261'>0.79066E+02</wgt>
<wgt id='3262'>0.78406E+02</wgt>
<wgt id='3263'>0.79024E+02</wgt>
<wgt id='3264'>0.79183E+02</wgt>
<wgt id='3265'>0.79376E+02</wgt>
<wgt id='3266'>0.78556E+02</wgt>
<wgt id='3267'>0.78726E+02</wgt>
<wgt id='3268'>0.79654E+02</wgt>
<wgt id='3269'>0.78949E+02</wgt>
<wgt id='3270'>0.79110E+02</wgt>
<wgt id='3271'>0.78997E+02</wgt>
<wgt id='3272'>0.79277E+02</wgt>
<wgt id='3273'>0.78856E+02</wgt>
<wgt id='3274'>0.79099E+02</wgt>
<wgt id='3275'>0.78961E+02</wgt>
<wgt id='3276'>0.78704E+02</wgt>
<wgt id='3277'>0.78413E+02</wgt>
<wgt id='3278'>0.78713E+02</wgt>
<wgt id='3279'>0.79340E+02</wgt>
<wgt id='3280'>0.78549E+02</wgt>
<wgt id='3281'>0.78922E+02</wgt>
<wgt id='3282'>0.79151E+02</wgt>
<wgt id='3283'>0.78954E+02</wgt>
<wgt id='3284'>0.78772E+02</wgt>
<wgt id='3285'>0.78178E+02</wgt>
<wgt id='3286'>0.78804E+02</wgt>
<wgt id='3287'>0.78402E+02</wgt>
<wgt id='3288'>0.79347E+02</wgt>
<wgt id='3289'>0.80157E+02</wgt>
<wgt id='3290'>0.79736E+02</wgt>
<wgt id='3291'>0.77633E+02</wgt>
<wgt id='3292'>0.77906E+02</wgt>
<wgt id='3293'>0.78431E+02</wgt>
<wgt id='3294'>0.77654E+02</wgt>
<wgt id='3295'>0.78280E+02</wgt>
<wgt id='3296'>0.79902E+02</wgt>
<wgt id='3297'>0.78699E+02</wgt>
<wgt id='3298'>0.78862E+02</wgt>
<wgt id='3299'>0.78349E+02</wgt>
<wgt id='3300'>0.79145E+02</wgt>
<wgt id='3301'>0.77460E+02</wgt>
<wgt id='3302'>0.80080E+02</wgt>
<wgt id='3400'>0.78687E+02</wgt>
<wgt id='3401'>0.78656E+02</wgt>
<wgt id='3402'>0.78271E+02</wgt>
<wgt id='3403'>0.79663E+02</wgt>
<wgt id='3404'>0.80022E+02</wgt>
<wgt id='3405'>0.79316E+02</wgt>
<wgt id='3406'>0.78909E+02</wgt>
<wgt id='3407'>0.78282E+02</wgt>
<wgt id='3408'>0.80253E+02</wgt>
<wgt id='3409'>0.79628E+02</wgt>
<wgt id='3410'>0.78504E+02</wgt>
<wgt id='3411'>0.79371E+02</wgt>
<wgt id='3412'>0.79516E+02</wgt>
<wgt id='3413'>0.78592E+02</wgt>
<wgt id='3414'>0.78373E+02</wgt>
<wgt id='3415'>0.78637E+02</wgt>
<wgt id='3416'>0.78093E+02</wgt>
<wgt id='3417'>0.79057E+02</wgt>
<wgt id='3418'>0.78134E+02</wgt>
<wgt id='3419'>0.78323E+02</wgt>
<wgt id='3420'>0.79057E+02</wgt>
<wgt id='3421'>0.78907E+02</wgt>
<wgt id='3422'>0.79525E+02</wgt>
<wgt id='3423'>0.79187E+02</wgt>
<wgt id='3424'>0.79058E+02</wgt>
<wgt id='3425'>0.78346E+02</wgt>
<wgt id='3426'>0.79074E+02</wgt>
<wgt id='3427'>0.78659E+02</wgt>
<wgt id='3428'>0.79781E+02</wgt>
<wgt id='3429'>0.78064E+02</wgt>
<wgt id='3430'>0.79242E+02</wgt>
<wgt id='3431'>0.78879E+02</wgt>
<wgt id='3432'>0.78779E+02</wgt>
<wgt id='3433'>0.77335E+02</wgt>
<wgt id='3434'>0.78588E+02</wgt>
<wgt id='3435'>0.78657E+02</wgt>
<wgt id='3436'>0.78786E+02</wgt>
<wgt id='3437'>0.78864E+02</wgt>
<wgt id='3438'>0.77955E+02</wgt>
<wgt id='3439'>0.79187E+02</wgt>
<wgt id='3440'>0.78708E+02</wgt>
<wgt id='3441'>0.78531E+02</wgt>
<wgt id='3442'>0.77102E+02</wgt>
<wgt id='3443'>0.78516E+02</wgt>
<wgt id='3444'>0.78391E+02</wgt>
<wgt id='3445'>0.78322E+02</wgt>
<wgt id='3446'>0.79091E+02</wgt>
<wgt id='3447'>0.80118E+02</wgt>
<wgt id='3448'>0.79383E+02</wgt>
<wgt id='3449'>0.79216E+02</wgt>
<wgt id='3450'>0.78561E+02</wgt>
<wgt id='3451'>0.79875E+02</wgt>
<wgt id='3452'>0.78288E+02</wgt>
<wgt id='3453'>0.78162E+02</wgt>
<wgt id='3454'>0.77782E+02</wgt>
<wgt id='3455'>0.79632E+02</wgt>
<wgt id='3456'>0.79065E+02</wgt>
<wgt id='3457'>0.79394E+02</wgt>
<wgt id='3458'>0.78749E+02</wgt>
<wgt id='3459'>0.78394E+02</wgt>
<wgt id='3460'>0.78373E+02</wgt>
<wgt id='3461'>0.78053E+02</wgt>
<wgt id='3462'>0.78087E+02</wgt>
<wgt id='3463'>0.77777E+02</wgt>
<wgt id='3464'>0.79254E+02</wgt>
<wgt id='3465'>0.78392E+02</wgt>
<wgt id='3466'>0.78921E+02</wgt>
<wgt id='3467'>0.78499E+02</wgt>
<wgt id='3468'>0.77500E+02</wgt>
<wgt id='3469'>0.78744E+02</wgt>
<wgt id='3470'>0.78819E+02</wgt>
<wgt id='3471'>0.78659E+02</wgt>
<wgt id='3472'>0.78126E+02</wgt>
<wgt id='3473'>0.78975E+02</wgt>
<wgt id='3474'>0.78518E+02</wgt>
<wgt id='3475'>0.78493E+02</wgt>
<wgt id='3476'>0.79010E+02</wgt>
<wgt id='3477'>0.77859E+02</wgt>
<wgt id='3478'>0.78915E+02</wgt>
<wgt id='3479'>0.79738E+02</wgt>
<wgt id='3480'>0.78244E+02</wgt>
<wgt id='3481'>0.79028E+02</wgt>
<wgt id='3482'>0.78196E+02</wgt>
<wgt id='3483'>0.77317E+02</wgt>
<wgt id='3484'>0.78398E+02</wgt>
<wgt id='3485'>0.78466E+02</wgt>
<wgt id='3486'>0.77334E+02</wgt>
<wgt id='3487'>0.78822E+02</wgt>
<wgt id='3488'>0.79680E+02</wgt>
<wgt id='3489'>0.77878E+02</wgt>
<wgt id='3490'>0.78789E+02</wgt>
<wgt id='3491'>0.78945E+02</wgt>
<wgt id='3492'>0.79037E+02</wgt>
<wgt id='3493'>0.78260E+02</wgt>
<wgt id='3494'>0.77087E+02</wgt>
<wgt id='3495'>0.78780E+02</wgt>
<wgt id='3496'>0.77609E+02</wgt>
<wgt id='3497'>0.78049E+02</wgt>
<wgt id='3498'>0.79129E+02</wgt>
<wgt id='3499'>0.78735E+02</wgt>
<wgt id='3500'>0.79480E+02</wgt>
</rwgt>
</event>
<event>
     13 322200  8.11039E+01  5.54291E+01 -1.00000E+00  1.34633E-01
      21    -1     0     0   503   504  0.000000000E+00  0.000000000E+00  5.615623568E+02  5.615623568E+02  0.000000000E+00  0.00000E+00  9.000E+00
      21    -1     0     0   502   503  0.000000000E+00  0.000000000E+00 -3.460838624E+02  3.460838624E+02  0.000000000E+00  0.00000E+00  9.000E+00
       6     2     1     2   502     0 -9.343336665E+01  1.450270698E+02 -2.094185144E+02  3.221075902E+02  1.735930312E+02  0.00000E+00  9.000E+00
      -6     2     1     2     0   505  1.406958134E+02 -1.160677566E+02  1.302415719E+02  2.857150022E+02  1.772093661E+02  0.00000E+00  9.000E+00
      21     1     1     2   505   504 -4.726244673E+01 -2.895931318E+01  2.946554369E+02  2.998236268E+02  3.814697266E-06  0.00000E+00  9.000E+00
      24     2     3     3     0     0 -6.926608974E+01  1.743721749E+02 -1.899845005E+02  2.791136724E+02  8.128274785E+01  0.00000E+00  9.000E+00
       5     1     3     3   502     0 -2.416727692E+01 -2.934510516E+01 -1.943401394E+01  4.299391780E+01  5.060000000E+00  0.00000E+00 -1.000E+00
     -24     2     4     4     0     0  1.523110874E+02 -8.271704508E+01  4.974304151E+01  1.976650076E+02  8.097103292E+01  0.00000E+00  9.000E+00
      -5     1     4     4     0   505 -1.161527402E+01 -3.335071152E+01  8.049853043E+01  8.804999461E+01  5.060000000E+00  0.00000E+00  1.000E+00
     -11     1     6     6     0     0  2.166674534E+00  9.519293804E+00 -5.110946929E+01  5.203353999E+01  5.100000000E-04  0.00000E+00  1.000E+00
      12     1     6     6     0     0 -7.143276427E+01  1.648528811E+02 -1.388750312E+02  2.270801324E+02  0.000000000E+00  0.00000E+00 -1.000E+00
      15     1     8     8     0     0  1.227503738E+02 -2.429034527E+01  2.468302389E+01  1.275542415E+02  1.777000000E+00  0.00000E+00 -1.000E+00
     -16     1     8     8     0     0  2.956071362E+01 -5.842669980E+01  2.506001762E+01  7.011076610E+01  0.000000000E+00  0.00000E+00  1.000E+00
#rwgt            1           1   757.49570731565950               10       19344           0
<rwgt>
<wgt id='1001'>0.81104E+02</wgt>
<wgt id='1002'>0.81746E+02</wgt>
<wgt id='1003'>0.81758E+02</wgt>
<wgt id='1004'>0.75240E+02</wgt>
<wgt id='1005'>0.74853E+02</wgt>
<wgt id='1006'>0.76709E+02</wgt>
<wgt id='1007'>0.86078E+02</wgt>
<wgt id='1008'>0.88444E+02</wgt>
<wgt id='1009'>0.85293E+02</wgt>
<wgt id='2000'>0.81104E+02</wgt>
<wgt id='2001'>0.81171E+02</wgt>
<wgt id='2002'>0.80923E+02</wgt>
<wgt id='2003'>0.81069E+02</wgt>
<wgt id='2004'>0.81253E+02</wgt>
<wgt id='2005'>0.81112E+02</wgt>
<wgt id='2006'>0.81249E+02</wgt>
<wgt id='2007'>0.81085E+02</wgt>
<wgt id='2008'>0.81298E+02</wgt>
<wgt id='2009'>0.81033E+02</wgt>
<wgt id='2010'>0.81101E+02</wgt>
<wgt id='2011'>0.81031E+02</wgt>
<wgt id='2012'>0.81143E+02</wgt>
<wgt id='2013'>0.81320E+02</wgt>
<wgt id='2014'>0.81462E+02</wgt>
<wgt id='2015'>0.81324E+02</wgt>
<wgt id='2016'>0.81207E+02</wgt>
<wgt id='2017'>0.81286E+02</wgt>
<wgt id='2018'>0.80711E+02</wgt>
<wgt id='2019'>0.81247E+02</wgt>
<wgt id='2020'>0.80958E+02</wgt>
<wgt id='2021'>0.80850E+02</wgt>
<wgt id='2022'>0.80971E+02</wgt>
<wgt id='2023'>0.80996E+02</wgt>
<wgt id='2024'>0.81047E+02</wgt>
<wgt id='2025'>0.81114E+02</wgt>
<wgt id='2026'>0.81024E+02</wgt>
<wgt id='2027'>0.80778E+02</wgt>
<wgt id='2028'>0.81194E+02</wgt>
<wgt id='2029'>0.80745E+02</wgt>
<wgt id='2030'>0.81070E+02</wgt>
<wgt id='2031'>0.80821E+02</wgt>
<wgt id='2032'>0.81123E+02</wgt>
<wgt id='2033'>0.81018E+02</wgt>
<wgt id='2034'>0.80969E+02</wgt>
<wgt id='2035'>0.81107E+02</wgt>
<wgt id='2036'>0.81288E+02</wgt>
<wgt id='2037'>0.81083E+02</wgt>
<wgt id='2038'>0.81037E+02</wgt>
<wgt id='2039'>0.81118E+02</wgt>
<wgt id='2040'>0.81032E+02</wgt>
<wgt id='2041'>0.81089E+02</wgt>
<wgt id='2042'>0.81134E+02</wgt>
<wgt id='2043'>0.81063E+02</wgt>
<wgt id='2044'>0.81182E+02</wgt>
<wgt id='2045'>0.81122E+02</wgt>
<wgt id='2046'>0.81109E+02</wgt>
<wgt id='2047'>0.81085E+02</wgt>
<wgt id='2048'>0.81067E+02</wgt>
<wgt id='2049'>0.81037E+02</wgt>
<wgt id='2050'>0.81065E+02</wgt>
<wgt id='2051'>0.81103E+02</wgt>
<wgt id='2052'>0.81191E+02</wgt>
<wgt id='2053'>0.81097E+02</wgt>
<wgt id='2054'>0.81094E+02</wgt>
<wgt id='2055'>0.81109E+02</wgt>
<wgt id='2056'>0.81061E+02</wgt>
<wgt id='2057'>0.81130E+02</wgt>
<wgt id='2058'>0.81129E+02</wgt>
<wgt id='2059'>0.81115E+02</wgt>
<wgt id='2060'>0.81104E+02</wgt>
<wgt id='2061'>0.81088E+02</wgt>
<wgt id='2062'>0.81170E+02</wgt>
<wgt id='2063'>0.81126E+02</wgt>
<wgt id='2064'>0.81118E+02</wgt>
<wgt id='2065'>0.81181E+02</wgt>
<wgt id='2066'>0.81092E+02</wgt>
<wgt id='2067'>0.81122E+02</wgt>
<wgt id='2068'>0.81120E+02</wgt>
<wgt id='2069'>0.81108E+02</wgt>
<wgt id='2070'>0.81112E+02</wgt>
<wgt id='2071'>0.81097E+02</wgt>
<wgt id='2072'>0.81111E+02</wgt>
<wgt id='2073'>0.81122E+02</wgt>
<wgt id='2074'>0.81077E+02</wgt>
<wgt id='2075'>0.81090E+02</wgt>
<wgt id='2076'>0.81090E+02</wgt>
<wgt id='2077'>0.81144E+02</wgt>
<wgt id='2078'>0.81119E+02</wgt>
<wgt id='2079'>0.81082E+02</wgt>
<wgt id='2080'>0.81108E+02</wgt>
<wgt id='2081'>0.81097E+02</wgt>
<wgt id='2082'>0.81112E+02</wgt>
<wgt id='2083'>0.81136E+02</wgt>
<wgt id='2084'>0.81111E+02</wgt>
<wgt id='2085'>0.81104E+02</wgt>
<wgt id='2086'>0.81095E+02</wgt>
<wgt id='2087'>0.81112E+02</wgt>
<wgt id='2088'>0.81100E+02</wgt>
<wgt id='2089'>0.81092E+02</wgt>
<wgt id='2090'>0.81121E+02</wgt>
<wgt id='2091'>0.81103E+02</wgt>
<wgt id='2092'>0.81123E+02</wgt>
<wgt id='2093'>0.81090E+02</wgt>
<wgt id='2094'>0.81112E+02</wgt>
<wgt id='2095'>0.81119E+02</wgt>
<wgt id='2096'>0.81093E+02</wgt>
<wgt id='2097'>0.81117E+02</wgt>
<wgt id='2098'>0.81096E+02</wgt>
<wgt id='2099'>0.81115E+02</wgt>
<wgt id='2100'>0.81104E+02</wgt>
<wgt id='2101'>0.79131E+02</wgt>
<wgt id='2102'>0.83248E+02</wgt>
<wgt id='2200'>0.81212E+02</wgt>
<wgt id='2201'>0.71834E+02</wgt>
<wgt id='2202'>0.73642E+02</wgt>
<wgt id='2203'>0.75768E+02</wgt>
<wgt id='2204'>0.77520E+02</wgt>
<wgt id='2205'>0.80285E+02</wgt>
<wgt id='2206'>0.82257E+02</wgt>
<wgt id='2207'>0.84820E+02</wgt>
<wgt id='2208'>0.86767E+02</wgt>
<wgt id='2300'>0.84389E+02</wgt>
<wgt id='2301'>0.84398E+02</wgt>
<wgt id='2302'>0.84428E+02</wgt>
<wgt id='2303'>0.84357E+02</wgt>
<wgt id='2304'>0.84549E+02</wgt>
<wgt id='2305'>0.84445E+02</wgt>
<wgt id='2306'>0.84322E+02</wgt>
<wgt id='2307'>0.84542E+02</wgt>
<wgt id='2308'>0.84398E+02</wgt>
<wgt id='2309'>0.84613E+02</wgt>
<wgt id='2310'>0.84344E+02</wgt>
<wgt id='2311'>0.84204E+02</wgt>
<wgt id='2312'>0.84345E+02</wgt>
<wgt id='2313'>0.84637E+02</wgt>
<wgt id='2314'>0.84398E+02</wgt>
<wgt id='2315'>0.84178E+02</wgt>
<wgt id='2316'>0.84410E+02</wgt>
<wgt id='2317'>0.84359E+02</wgt>
<wgt id='2318'>0.84564E+02</wgt>
<wgt id='2319'>0.84375E+02</wgt>
<wgt id='2320'>0.84225E+02</wgt>
<wgt id='2321'>0.84230E+02</wgt>
<wgt id='2322'>0.84384E+02</wgt>
<wgt id='2323'>0.84240E+02</wgt>
<wgt id='2324'>0.84090E+02</wgt>
<wgt id='2325'>0.84443E+02</wgt>
<wgt id='2326'>0.84574E+02</wgt>
<wgt id='2327'>0.84403E+02</wgt>
<wgt id='2328'>0.83989E+02</wgt>
<wgt id='2329'>0.84132E+02</wgt>
<wgt id='2330'>0.84722E+02</wgt>
<wgt id='2331'>0.84556E+02</wgt>
<wgt id='2332'>0.84563E+02</wgt>
<wgt id='2333'>0.84651E+02</wgt>
<wgt id='2334'>0.84465E+02</wgt>
<wgt id='2335'>0.84630E+02</wgt>
<wgt id='2336'>0.84450E+02</wgt>
<wgt id='2337'>0.84389E+02</wgt>
<wgt id='2338'>0.84408E+02</wgt>
<wgt id='2339'>0.84268E+02</wgt>
<wgt id='2340'>0.84408E+02</wgt>
<wgt id='2341'>0.84496E+02</wgt>
<wgt id='2342'>0.84266E+02</wgt>
<wgt id='2343'>0.84272E+02</wgt>
<wgt id='2344'>0.84388E+02</wgt>
<wgt id='2345'>0.84463E+02</wgt>
<wgt id='2346'>0.84495E+02</wgt>
<wgt id='2347'>0.84388E+02</wgt>
<wgt id='2348'>0.84451E+02</wgt>
<wgt id='2349'>0.84378E+02</wgt>
<wgt id='2350'>0.84364E+02</wgt>
<wgt id='2351'>0.84509E+02</wgt>
<wgt id='2352'>0.84333E+02</wgt>
<wgt id='2353'>0.84354E+02</wgt>
<wgt id='2354'>0.84387E+02</wgt>
<wgt id='2355'>0.84295E+02</wgt>
<wgt id='2356'>0.84399E+02</wgt>
<wgt id='2357'>0.84343E+02</wgt>
<wgt id='2358'>0.84335E+02</wgt>
<wgt id='2359'>0.84381E+02</wgt>
<wgt id='2360'>0.84417E+02</wgt>
<wgt id='2361'>0.84392E+02</wgt>
<wgt id='2362'>0.84402E+02</wgt>
<wgt id='2363'>0.84427E+02</wgt>
<wgt id='2364'>0.84362E+02</wgt>
<wgt id='2365'>0.84388E+02</wgt>
<wgt id='2366'>0.84401E+02</wgt>
<wgt id='2367'>0.84347E+02</wgt>
<wgt id='2368'>0.84403E+02</wgt>
<wgt id='2369'>0.84363E+02</wgt>
<wgt id='2370'>0.84399E+02</wgt>
<wgt id='2371'>0.84380E+02</wgt>
<wgt id='2372'>0.84394E+02</wgt>
<wgt id='2373'>0.84362E+02</wgt>
<wgt id='2374'>0.84435E+02</wgt>
<wgt id='2375'>0.84393E+02</wgt>
<wgt id='2376'>0.84391E+02</wgt>
<wgt id='2377'>0.84400E+02</wgt>
<wgt id='2378'>0.84414E+02</wgt>
<wgt id='2379'>0.84368E+02</wgt>
<wgt id='2380'>0.84376E+02</wgt>
<wgt id='2381'>0.84381E+02</wgt>
<wgt id='2382'>0.84370E+02</wgt>
<wgt id='2383'>0.84399E+02</wgt>
<wgt id='2384'>0.84385E+02</wgt>
<wgt id='2385'>0.84402E+02</wgt>
<wgt id='2386'>0.84385E+02</wgt>
<wgt id='2387'>0.84379E+02</wgt>
<wgt id='2388'>0.84382E+02</wgt>
<wgt id='2389'>0.84392E+02</wgt>
<wgt id='2390'>0.84395E+02</wgt>
<wgt id='2391'>0.84386E+02</wgt>
<wgt id='2392'>0.84387E+02</wgt>
<wgt id='2393'>0.84395E+02</wgt>
<wgt id='2394'>0.84404E+02</wgt>
<wgt id='2395'>0.84394E+02</wgt>
<wgt id='2396'>0.84374E+02</wgt>
<wgt id='2397'>0.84370E+02</wgt>
<wgt id='2398'>0.84379E+02</wgt>
<wgt id='2399'>0.84402E+02</wgt>
<wgt id='2400'>0.84395E+02</wgt>
<wgt id='2401'>0.82293E+02</wgt>
<wgt id='2402'>0.86371E+02</wgt>
<wgt id='2500'>0.81457E+02</wgt>
<wgt id='2501'>0.86309E+02</wgt>
<wgt id='2600'>0.78136E+02</wgt>
<wgt id='2601'>0.78169E+02</wgt>
<wgt id='2602'>0.77996E+02</wgt>
<wgt id='2603'>0.78100E+02</wgt>
<wgt id='2604'>0.78082E+02</wgt>
<wgt id='2605'>0.78030E+02</wgt>
<wgt id='2606'>0.78030E+02</wgt>
<wgt id='2607'>0.78173E+02</wgt>
<wgt id='2608'>0.78102E+02</wgt>
<wgt id='2609'>0.78031E+02</wgt>
<wgt id='2610'>0.78092E+02</wgt>
<wgt id='2611'>0.78050E+02</wgt>
<wgt id='2612'>0.78432E+02</wgt>
<wgt id='2613'>0.78086E+02</wgt>
<wgt id='2614'>0.78100E+02</wgt>
<wgt id='2615'>0.77944E+02</wgt>
<wgt id='2616'>0.78092E+02</wgt>
<wgt id='2617'>0.77951E+02</wgt>
<wgt id='2618'>0.77886E+02</wgt>
<wgt id='2619'>0.78198E+02</wgt>
<wgt id='2620'>0.78150E+02</wgt>
<wgt id='2621'>0.78101E+02</wgt>
<wgt id='2622'>0.78260E+02</wgt>
<wgt id='2623'>0.78132E+02</wgt>
<wgt id='2624'>0.78154E+02</wgt>
<wgt id='2625'>0.78040E+02</wgt>
<wgt id='2626'>0.78114E+02</wgt>
<wgt id='2627'>0.78082E+02</wgt>
<wgt id='2628'>0.78161E+02</wgt>
<wgt id='2629'>0.78133E+02</wgt>
<wgt id='2630'>0.78118E+02</wgt>
<wgt id='2631'>0.78136E+02</wgt>
<wgt id='2632'>0.78144E+02</wgt>
<wgt id='2633'>0.78135E+02</wgt>
<wgt id='2634'>0.78152E+02</wgt>
<wgt id='2635'>0.78128E+02</wgt>
<wgt id='2636'>0.78124E+02</wgt>
<wgt id='2637'>0.78128E+02</wgt>
<wgt id='2638'>0.78145E+02</wgt>
<wgt id='2639'>0.78132E+02</wgt>
<wgt id='2640'>0.78137E+02</wgt>
<wgt id='2641'>0.78133E+02</wgt>
<wgt id='2642'>0.78137E+02</wgt>
<wgt id='2643'>0.78147E+02</wgt>
<wgt id='2644'>0.78133E+02</wgt>
<wgt id='2645'>0.78133E+02</wgt>
<wgt id='2646'>0.78107E+02</wgt>
<wgt id='2647'>0.78145E+02</wgt>
<wgt id='2648'>0.78143E+02</wgt>
<wgt id='2649'>0.78146E+02</wgt>
<wgt id='2650'>0.78139E+02</wgt>
<wgt id='2651'>0.76890E+02</wgt>
<wgt id='2652'>0.79300E+02</wgt>
<wgt id='2700'>0.75687E+02</wgt>
<wgt id='2701'>0.76890E+02</wgt>
<wgt id='2702'>0.77556E+02</wgt>
<wgt id='2703'>0.78601E+02</wgt>
<wgt id='2704'>0.79300E+02</wgt>
<wgt id='2705'>0.80361E+02</wgt>
<wgt id='2800'>0.79193E+02</wgt>
<wgt id='4000'>0.80214E+02</wgt>
<wgt id='4001'>0.80614E+02</wgt>
<wgt id='4002'>0.80191E+02</wgt>
<wgt id='4003'>0.80502E+02</wgt>
<wgt id='4004'>0.80029E+02</wgt>
<wgt id='4005'>0.80001E+02</wgt>
<wgt id='4006'>0.80509E+02</wgt>
<wgt id='4007'>0.81104E+02</wgt>
<wgt id='4008'>0.79363E+02</wgt>
<wgt id='4009'>0.80710E+02</wgt>
<wgt id='4010'>0.79737E+02</wgt>
<wgt id='4011'>0.80526E+02</wgt>
<wgt id='4012'>0.79952E+02</wgt>
<wgt id='4013'>0.80960E+02</wgt>
<wgt id='4014'>0.79596E+02</wgt>
<wgt id='4015'>0.79792E+02</wgt>
<wgt id='4016'>0.80857E+02</wgt>
<wgt id='4017'>0.80152E+02</wgt>
<wgt id='4018'>0.80333E+02</wgt>
<wgt id='4019'>0.80763E+02</wgt>
<wgt id='4020'>0.79444E+02</wgt>
<wgt id='4021'>0.80347E+02</wgt>
<wgt id='4022'>0.79969E+02</wgt>
<wgt id='4023'>0.80332E+02</wgt>
<wgt id='4024'>0.80288E+02</wgt>
<wgt id='4025'>0.80420E+02</wgt>
<wgt id='4026'>0.79763E+02</wgt>
<wgt id='4027'>0.80227E+02</wgt>
<wgt id='4028'>0.80324E+02</wgt>
<wgt id='4029'>0.79741E+02</wgt>
<wgt id='4030'>0.79983E+02</wgt>
<wgt id='4031'>0.79902E+02</wgt>
<wgt id='4032'>0.80804E+02</wgt>
<wgt id='4033'>0.80455E+02</wgt>
<wgt id='4034'>0.79706E+02</wgt>
<wgt id='4035'>0.81564E+02</wgt>
<wgt id='4036'>0.79248E+02</wgt>
<wgt id='4037'>0.81722E+02</wgt>
<wgt id='4038'>0.79094E+02</wgt>
<wgt id='4039'>0.81636E+02</wgt>
<wgt id='4040'>0.78796E+02</wgt>
<wgt id='4041'>0.80135E+02</wgt>
<wgt id='4042'>0.80162E+02</wgt>
<wgt id='4043'>0.79192E+02</wgt>
<wgt id='4044'>0.80345E+02</wgt>
<wgt id='4045'>0.81584E+02</wgt>
<wgt id='4046'>0.79628E+02</wgt>
<wgt id='4047'>0.79335E+02</wgt>
<wgt id='4048'>0.80710E+02</wgt>
<wgt id='4049'>0.80210E+02</wgt>
<wgt id='4050'>0.80264E+02</wgt>
<wgt id='4051'>0.81084E+02</wgt>
<wgt id='4052'>0.79466E+02</wgt>
<wgt id='4053'>0.80891E+02</wgt>
<wgt id='4054'>0.79130E+02</wgt>
<wgt id='4055'>0.80695E+02</wgt>
<wgt id='4056'>0.79776E+02</wgt>
<wgt id='4057'>0.79390E+02</wgt>
<wgt id='4058'>0.80729E+02</wgt>
<wgt id='4100'>0.80526E+02</wgt>
<wgt id='4101'>0.80384E+02</wgt>
<wgt id='4102'>0.80015E+02</wgt>
<wgt id='4103'>0.79791E+02</wgt>
<wgt id='4200'>0.76886E+02</wgt>
<wgt id='4201'>0.77018E+02</wgt>
<wgt id='4202'>0.77078E+02</wgt>
<wgt id='4203'>0.76188E+02</wgt>
<wgt id='4204'>0.77439E+02</wgt>
<wgt id='4205'>0.76773E+02</wgt>
<wgt id='4206'>0.77210E+02</wgt>
<wgt id='4207'>0.76841E+02</wgt>
<wgt id='4208'>0.76992E+02</wgt>
<wgt id='4209'>0.77167E+02</wgt>
<wgt id='4210'>0.76862E+02</wgt>
<wgt id='4211'>0.77895E+02</wgt>
<wgt id='4212'>0.76121E+02</wgt>
<wgt id='4213'>0.77105E+02</wgt>
<wgt id='4214'>0.76568E+02</wgt>
<wgt id='4215'>0.76975E+02</wgt>
<wgt id='4216'>0.76645E+02</wgt>
<wgt id='4217'>0.76547E+02</wgt>
<wgt id='4218'>0.77147E+02</wgt>
<wgt id='4219'>0.75730E+02</wgt>
<wgt id='4220'>0.78020E+02</wgt>
<wgt id='4221'>0.76323E+02</wgt>
<wgt id='4222'>0.77658E+02</wgt>
<wgt id='4223'>0.77182E+02</wgt>
<wgt id='4224'>0.76124E+02</wgt>
<wgt id='4225'>0.75605E+02</wgt>
<wgt id='4226'>0.78230E+02</wgt>
<wgt id='4227'>0.77648E+02</wgt>
<wgt id='4228'>0.76261E+02</wgt>
<wgt id='4229'>0.75908E+02</wgt>
<wgt id='4230'>0.77588E+02</wgt>
<wgt id='4231'>0.77047E+02</wgt>
<wgt id='4232'>0.76596E+02</wgt>
<wgt id='4233'>0.77197E+02</wgt>
<wgt id='4234'>0.76283E+02</wgt>
<wgt id='4235'>0.77328E+02</wgt>
<wgt id='4236'>0.76575E+02</wgt>
<wgt id='4237'>0.77075E+02</wgt>
<wgt id='4238'>0.76340E+02</wgt>
<wgt id='4239'>0.77219E+02</wgt>
<wgt id='4240'>0.75724E+02</wgt>
<wgt id='4241'>0.76653E+02</wgt>
<wgt id='4242'>0.77127E+02</wgt>
<wgt id='4243'>0.76801E+02</wgt>
<wgt id='4244'>0.77342E+02</wgt>
<wgt id='4245'>0.76241E+02</wgt>
<wgt id='4246'>0.77413E+02</wgt>
<wgt id='4247'>0.76607E+02</wgt>
<wgt id='4248'>0.76969E+02</wgt>
<wgt id='4249'>0.78187E+02</wgt>
<wgt id='4250'>0.75427E+02</wgt>
<wgt id='4251'>0.76627E+02</wgt>
<wgt id='4252'>0.76993E+02</wgt>
<wgt id='4253'>0.76741E+02</wgt>
<wgt id='4254'>0.76888E+02</wgt>
<wgt id='4255'>0.77352E+02</wgt>
<wgt id='4256'>0.76594E+02</wgt>
<wgt id='4257'>0.75492E+02</wgt>
<wgt id='4258'>0.77279E+02</wgt>
<wgt id='4300'>0.79500E+02</wgt>
<wgt id='4301'>0.78399E+02</wgt>
<wgt id='5000'>0.79770E+02</wgt>
<wgt id='5001'>0.79814E+02</wgt>
<wgt id='5002'>0.79713E+02</wgt>
<wgt id='5003'>0.79787E+02</wgt>
<wgt id='5004'>0.79755E+02</wgt>
<wgt id='5005'>0.79787E+02</wgt>
<wgt id='5006'>0.79741E+02</wgt>
<wgt id='5007'>0.79825E+02</wgt>
<wgt id='5008'>0.79725E+02</wgt>
<wgt id='5009'>0.79893E+02</wgt>
<wgt id='5010'>0.79643E+02</wgt>
<wgt id='5011'>0.79935E+02</wgt>
<wgt id='5012'>0.79611E+02</wgt>
<wgt id='5013'>0.79923E+02</wgt>
<wgt id='5014'>0.79661E+02</wgt>
<wgt id='5015'>0.79391E+02</wgt>
<wgt id='5016'>0.79391E+02</wgt>
<wgt id='5017'>0.80159E+02</wgt>
<wgt id='5018'>0.79508E+02</wgt>
<wgt id='5019'>0.80014E+02</wgt>
<wgt id='5020'>0.79435E+02</wgt>
<wgt id='5021'>0.79837E+02</wgt>
<wgt id='5022'>0.79667E+02</wgt>
<wgt id='5023'>0.79712E+02</wgt>
<wgt id='5024'>0.79908E+02</wgt>
<wgt id='5025'>0.79569E+02</wgt>
<wgt id='5026'>0.79993E+02</wgt>
<wgt id='5027'>0.79817E+02</wgt>
<wgt id='5028'>0.79644E+02</wgt>
<wgt id='5029'>0.80583E+02</wgt>
<wgt id='5030'>0.79311E+02</wgt>
<wgt id='5031'>0.79335E+02</wgt>
<wgt id='5032'>0.81106E+02</wgt>
<wgt id='5033'>0.79748E+02</wgt>
<wgt id='5034'>0.79793E+02</wgt>
<wgt id='5035'>0.79778E+02</wgt>
<wgt id='5036'>0.79760E+02</wgt>
<wgt id='5037'>0.79597E+02</wgt>
<wgt id='5038'>0.79867E+02</wgt>
<wgt id='5039'>0.79960E+02</wgt>
<wgt id='5040'>0.79294E+02</wgt>
<wgt id='5041'>0.79832E+02</wgt>
<wgt id='5042'>0.79701E+02</wgt>
<wgt id='5043'>0.79940E+02</wgt>
<wgt id='5044'>0.79647E+02</wgt>
<wgt id='5045'>0.79576E+02</wgt>
<wgt id='5046'>0.80252E+02</wgt>
<wgt id='5047'>0.79820E+02</wgt>
<wgt id='5048'>0.79548E+02</wgt>
<wgt id='5049'>0.79743E+02</wgt>
<wgt id='5050'>0.79848E+02</wgt>
<wgt id='5051'>0.79899E+02</wgt>
<wgt id='5052'>0.79674E+02</wgt>
<wgt id='5053'>0.79770E+02</wgt>
<wgt id='5054'>0.79936E+02</wgt>
<wgt id='5055'>0.79793E+02</wgt>
<wgt id='5056'>0.79802E+02</wgt>
<wgt id='5057'>0.79516E+02</wgt>
<wgt id='5058'>0.79948E+02</wgt>
<wgt id='5059'>0.79737E+02</wgt>
<wgt id='5060'>0.79796E+02</wgt>
<wgt id='5061'>0.80086E+02</wgt>
<wgt id='5062'>0.79811E+02</wgt>
<wgt id='5063'>0.80091E+02</wgt>
<wgt id='5064'>0.79703E+02</wgt>
<wgt id='5100'>0.79770E+02</wgt>
<wgt id='5101'>0.79773E+02</wgt>
<wgt id='6000'>0.79827E+02</wgt>
<wgt id='6001'>0.79932E+02</wgt>
<wgt id='6002'>0.79771E+02</wgt>
<wgt id='6003'>0.79749E+02</wgt>
<wgt id='6004'>0.79879E+02</wgt>
<wgt id='6005'>0.79637E+02</wgt>
<wgt id='6006'>0.80092E+02</wgt>
<wgt id='6007'>0.79625E+02</wgt>
<wgt id='6008'>0.79685E+02</wgt>
<wgt id='6009'>0.80113E+02</wgt>
<wgt id='6010'>0.78681E+02</wgt>
<wgt id='6011'>0.79802E+02</wgt>
<wgt id='6012'>0.80122E+02</wgt>
<wgt id='6013'>0.79598E+02</wgt>
<wgt id='6014'>0.79729E+02</wgt>
<wgt id='6015'>0.79255E+02</wgt>
<wgt id='6016'>0.79932E+02</wgt>
<wgt id='6017'>0.79809E+02</wgt>
<wgt id='6018'>0.79630E+02</wgt>
<wgt id='6019'>0.79875E+02</wgt>
<wgt id='6020'>0.80000E+02</wgt>
<wgt id='6021'>0.79899E+02</wgt>
<wgt id='6022'>0.79896E+02</wgt>
<wgt id='6023'>0.79853E+02</wgt>
<wgt id='6024'>0.79913E+02</wgt>
<wgt id='6025'>0.80084E+02</wgt>
<wgt id='6026'>0.79859E+02</wgt>
<wgt id='6027'>0.79836E+02</wgt>
<wgt id='6028'>0.79668E+02</wgt>
<wgt id='6029'>0.79650E+02</wgt>
<wgt id='6030'>0.80364E+02</wgt>
<wgt id='6031'>0.79642E+02</wgt>
<wgt id='6032'>0.79881E+02</wgt>
<wgt id='6033'>0.79707E+02</wgt>
<wgt id='6034'>0.80064E+02</wgt>
<wgt id='6035'>0.79882E+02</wgt>
<wgt id='6036'>0.80312E+02</wgt>
<wgt id='6037'>0.79833E+02</wgt>
<wgt id='6038'>0.79898E+02</wgt>
<wgt id='6039'>0.79981E+02</wgt>
<wgt id='6040'>0.79798E+02</wgt>
<wgt id='6041'>0.78403E+02</wgt>
<wgt id='6042'>0.80201E+02</wgt>
<wgt id='7000'>0.79127E+02</wgt>
<wgt id='7001'>0.78278E+02</wgt>
<wgt id='7002'>0.78445E+02</wgt>
<wgt id='7003'>0.78312E+02</wgt>
<wgt id='7004'>0.78412E+02</wgt>
<wgt id='7005'>0.78434E+02</wgt>
<wgt id='7006'>0.78289E+02</wgt>
<wgt id='7007'>0.78834E+02</wgt>
<wgt id='7008'>0.77903E+02</wgt>
<wgt id='7009'>0.77995E+02</wgt>
<wgt id='7010'>0.78741E+02</wgt>
<wgt id='7011'>0.78610E+02</wgt>
<wgt id='7012'>0.78116E+02</wgt>
<wgt id='7013'>0.78264E+02</wgt>
<wgt id='7014'>0.78451E+02</wgt>
<wgt id='7015'>0.78297E+02</wgt>
<wgt id='7016'>0.78192E+02</wgt>
<wgt id='7017'>0.78381E+02</wgt>
<wgt id='7018'>0.78350E+02</wgt>
<wgt id='7019'>0.78227E+02</wgt>
<wgt id='7020'>0.78508E+02</wgt>
<wgt id='7021'>0.78662E+02</wgt>
<wgt id='7022'>0.78074E+02</wgt>
<wgt id='7023'>0.77988E+02</wgt>
<wgt id='7024'>0.78760E+02</wgt>
<wgt id='7025'>0.77386E+02</wgt>
<wgt id='7026'>0.79318E+02</wgt>
<wgt id='7027'>0.77947E+02</wgt>
<wgt id='7028'>0.78810E+02</wgt>
<wgt id='8000'>0.79441E+02</wgt>
<wgt id='8001'>0.79435E+02</wgt>
<wgt id='8002'>0.79463E+02</wgt>
<wgt id='8003'>0.79441E+02</wgt>
<wgt id='8004'>0.79439E+02</wgt>
<wgt id='8005'>0.79319E+02</wgt>
<wgt id='8006'>0.79539E+02</wgt>
<wgt id='8007'>0.79637E+02</wgt>
<wgt id='8008'>0.79608E+02</wgt>
<wgt id='8009'>0.79744E+02</wgt>
<wgt id='8010'>0.79344E+02</wgt>
<wgt id='8011'>0.79462E+02</wgt>
<wgt id='8012'>0.79129E+02</wgt>
<wgt id='8013'>0.79270E+02</wgt>
<wgt id='8014'>0.79654E+02</wgt>
<wgt id='8015'>0.79398E+02</wgt>
<wgt id='8016'>0.79517E+02</wgt>
<wgt id='8017'>0.79492E+02</wgt>
<wgt id='8018'>0.79654E+02</wgt>
<wgt id='8019'>0.79481E+02</wgt>
<wgt id='8020'>0.79437E+02</wgt>
<wgt id='8021'>0.79365E+02</wgt>
<wgt id='8022'>0.79426E+02</wgt>
<wgt id='8023'>0.79335E+02</wgt>
<wgt id='8024'>0.79156E+02</wgt>
<wgt id='8025'>0.79354E+02</wgt>
<wgt id='8026'>0.79528E+02</wgt>
<wgt id='8027'>0.79519E+02</wgt>
<wgt id='8028'>0.79490E+02</wgt>
<wgt id='8029'>0.79420E+02</wgt>
<wgt id='3000'>0.81104E+02</wgt>
<wgt id='3001'>0.81997E+02</wgt>
<wgt id='3002'>0.80014E+02</wgt>
<wgt id='3003'>0.82646E+02</wgt>
<wgt id='3004'>0.81752E+02</wgt>
<wgt id='3005'>0.80455E+02</wgt>
<wgt id='3006'>0.84795E+02</wgt>
<wgt id='3007'>0.80977E+02</wgt>
<wgt id='3008'>0.80149E+02</wgt>
<wgt id='3009'>0.81322E+02</wgt>
<wgt id='3010'>0.82632E+02</wgt>
<wgt id='3011'>0.82815E+02</wgt>
<wgt id='3012'>0.82395E+02</wgt>
<wgt id='3013'>0.80322E+02</wgt>
<wgt id='3014'>0.80956E+02</wgt>
<wgt id='3015'>0.79596E+02</wgt>
<wgt id='3016'>0.81437E+02</wgt>
<wgt id='3017'>0.82350E+02</wgt>
<wgt id='3018'>0.81289E+02</wgt>
<wgt id='3019'>0.78770E+02</wgt>
<wgt id='3020'>0.79586E+02</wgt>
<wgt id='3021'>0.79835E+02</wgt>
<wgt id='3022'>0.78468E+02</wgt>
<wgt id='3023'>0.79197E+02</wgt>
<wgt id='3024'>0.80088E+02</wgt>
<wgt id='3025'>0.79785E+02</wgt>
<wgt id='3026'>0.80285E+02</wgt>
<wgt id='3027'>0.78915E+02</wgt>
<wgt id='3028'>0.82249E+02</wgt>
<wgt id='3029'>0.82000E+02</wgt>
<wgt id='3030'>0.82470E+02</wgt>
<wgt id='3031'>0.82303E+02</wgt>
<wgt id='3032'>0.83155E+02</wgt>
<wgt id='3033'>0.80236E+02</wgt>
<wgt id='3034'>0.81826E+02</wgt>
<wgt id='3035'>0.81698E+02</wgt>
<wgt id='3036'>0.81690E+02</wgt>
<wgt id='3037'>0.81074E+02</wgt>
<wgt id='3038'>0.80805E+02</wgt>
<wgt id='3039'>0.81340E+02</wgt>
<wgt id='3040'>0.80956E+02</wgt>
<wgt id='3041'>0.80860E+02</wgt>
<wgt id='3042'>0.81751E+02</wgt>
<wgt id='3043'>0.81064E+02</wgt>
<wgt id='3044'>0.81303E+02</wgt>
<wgt id='3045'>0.80908E+02</wgt>
<wgt id='3046'>0.81636E+02</wgt>
<wgt id='3047'>0.81274E+02</wgt>
<wgt id='3048'>0.80092E+02</wgt>
<wgt id='3049'>0.81228E+02</wgt>
<wgt id='3050'>0.82781E+02</wgt>
<wgt id='3051'>0.81695E+02</wgt>
<wgt id='3052'>0.80291E+02</wgt>
<wgt id='3053'>0.80304E+02</wgt>
<wgt id='3054'>0.81599E+02</wgt>
<wgt id='3055'>0.79926E+02</wgt>
<wgt id='3056'>0.80793E+02</wgt>
<wgt id='3057'>0.80579E+02</wgt>
<wgt id='3058'>0.79711E+02</wgt>
<wgt id='3059'>0.81252E+02</wgt>
<wgt id='3060'>0.81600E+02</wgt>
<wgt id='3061'>0.81164E+02</wgt>
<wgt id='3062'>0.80983E+02</wgt>
<wgt id='3063'>0.79123E+02</wgt>
<wgt id='3064'>0.80945E+02</wgt>
<wgt id='3065'>0.80347E+02</wgt>
<wgt id='3066'>0.81492E+02</wgt>
<wgt id='3067'>0.80079E+02</wgt>
<wgt id='3068'>0.81156E+02</wgt>
<wgt id='3069'>0.81109E+02</wgt>
<wgt id='3070'>0.80576E+02</wgt>
<wgt id='3071'>0.81390E+02</wgt>
<wgt id='3072'>0.79539E+02</wgt>
<wgt id='3073'>0.81545E+02</wgt>
<wgt id='3074'>0.80878E+02</wgt>
<wgt id='3075'>0.82307E+02</wgt>
<wgt id='3076'>0.82181E+02</wgt>
<wgt id='3077'>0.80269E+02</wgt>
<wgt id='3078'>0.81591E+02</wgt>
<wgt id='3079'>0.80566E+02</wgt>
<wgt id='3080'>0.82097E+02</wgt>
<wgt id='3081'>0.80119E+02</wgt>
<wgt id='3082'>0.81437E+02</wgt>
<wgt id='3083'>0.81446E+02</wgt>
<wgt id='3084'>0.80660E+02</wgt>
<wgt id='3085'>0.82468E+02</wgt>
<wgt id='3086'>0.81076E+02</wgt>
<wgt id='3087'>0.81469E+02</wgt>
<wgt id='3088'>0.83063E+02</wgt>
<wgt id='3089'>0.83015E+02</wgt>
<wgt id='3090'>0.82050E+02</wgt>
<wgt id='3091'>0.80604E+02</wgt>
<wgt id='3092'>0.81781E+02</wgt>
<wgt id='3093'>0.81013E+02</wgt>
<wgt id='3094'>0.81193E+02</wgt>
<wgt id='3095'>0.81985E+02</wgt>
<wgt id='3096'>0.80123E+02</wgt>
<wgt id='3097'>0.80929E+02</wgt>
<wgt id='3098'>0.81817E+02</wgt>
<wgt id='3099'>0.79805E+02</wgt>
<wgt id='3100'>0.80116E+02</wgt>
<wgt id='3200'>0.78175E+02</wgt>
<wgt id='3201'>0.78838E+02</wgt>
<wgt id='3202'>0.77136E+02</wgt>
<wgt id='3203'>0.78485E+02</wgt>
<wgt id='3204'>0.77448E+02</wgt>
<wgt id='3205'>0.78924E+02</wgt>
<wgt id='3206'>0.78724E+02</wgt>
<wgt id='3207'>0.78997E+02</wgt>
<wgt id='3208'>0.78685E+02</wgt>
<wgt id='3209'>0.77957E+02</wgt>
<wgt id='3210'>0.78062E+02</wgt>
<wgt id='3211'>0.78378E+02</wgt>
<wgt id='3212'>0.77169E+02</wgt>
<wgt id='3213'>0.78275E+02</wgt>
<wgt id='3214'>0.78047E+02</wgt>
<wgt id='3215'>0.78236E+02</wgt>
<wgt id='3216'>0.79339E+02</wgt>
<wgt id='3217'>0.78540E+02</wgt>
<wgt id='3218'>0.78176E+02</wgt>
<wgt id='3219'>0.77693E+02</wgt>
<wgt id='3220'>0.78007E+02</wgt>
<wgt id='3221'>0.78913E+02</wgt>
<wgt id='3222'>0.79580E+02</wgt>
<wgt id='3223'>0.77620E+02</wgt>
<wgt id='3224'>0.78169E+02</wgt>
<wgt id='3225'>0.78884E+02</wgt>
<wgt id='3226'>0.78618E+02</wgt>
<wgt id='3227'>0.77793E+02</wgt>
<wgt id='3228'>0.77853E+02</wgt>
<wgt id='3229'>0.78476E+02</wgt>
<wgt id='3230'>0.78709E+02</wgt>
<wgt id='3231'>0.78409E+02</wgt>
<wgt id='3232'>0.78481E+02</wgt>
<wgt id='3233'>0.79058E+02</wgt>
<wgt id='3234'>0.77853E+02</wgt>
<wgt id='3235'>0.77475E+02</wgt>
<wgt id='3236'>0.77108E+02</wgt>
<wgt id='3237'>0.77898E+02</wgt>
<wgt id='3238'>0.78062E+02</wgt>
<wgt id='3239'>0.77805E+02</wgt>
<wgt id='3240'>0.77563E+02</wgt>
<wgt id='3241'>0.78811E+02</wgt>
<wgt id='3242'>0.77742E+02</wgt>
<wgt id='3243'>0.77200E+02</wgt>
<wgt id='3244'>0.77965E+02</wgt>
<wgt id='3245'>0.78242E+02</wgt>
<wgt id='3246'>0.77516E+02</wgt>
<wgt id='3247'>0.78502E+02</wgt>
<wgt id='3248'>0.78031E+02</wgt>
<wgt id='3249'>0.77617E+02</wgt>
<wgt id='3250'>0.78385E+02</wgt>
<wgt id='3251'>0.78014E+02</wgt>
<wgt id='3252'>0.78500E+02</wgt>
<wgt id='3253'>0.77890E+02</wgt>
<wgt id='3254'>0.77659E+02</wgt>
<wgt id='3255'>0.78003E+02</wgt>
<wgt id='3256'>0.77959E+02</wgt>
<wgt id='3257'>0.77923E+02</wgt>
<wgt id='3258'>0.78413E+02</wgt>
<wgt id='3259'>0.78593E+02</wgt>
<wgt id='3260'>0.78685E+02</wgt>
<wgt id='3261'>0.79055E+02</wgt>
<wgt id='3262'>0.77911E+02</wgt>
<wgt id='3263'>0.79399E+02</wgt>
<wgt id='3264'>0.78166E+02</wgt>
<wgt id='3265'>0.77844E+02</wgt>
<wgt id='3266'>0.77898E+02</wgt>
<wgt id='3267'>0.77785E+02</wgt>
<wgt id='3268'>0.78564E+02</wgt>
<wgt id='3269'>0.78333E+02</wgt>
<wgt id='3270'>0.78031E+02</wgt>
<wgt id='3271'>0.78252E+02</wgt>
<wgt id='3272'>0.78505E+02</wgt>
<wgt id='3273'>0.77894E+02</wgt>
<wgt id='3274'>0.78345E+02</wgt>
<wgt id='3275'>0.78550E+02</wgt>
<wgt id='3276'>0.77365E+02</wgt>
<wgt id='3277'>0.77457E+02</wgt>
<wgt id='3278'>0.77957E+02</wgt>
<wgt id='3279'>0.78990E+02</wgt>
<wgt id='3280'>0.78000E+02</wgt>
<wgt id='3281'>0.78514E+02</wgt>
<wgt id='3282'>0.78386E+02</wgt>
<wgt id='3283'>0.78654E+02</wgt>
<wgt id='3284'>0.78361E+02</wgt>
<wgt id='3285'>0.77509E+02</wgt>
<wgt id='3286'>0.77784E+02</wgt>
<wgt id='3287'>0.77883E+02</wgt>
<wgt id='3288'>0.78254E+02</wgt>
<wgt id='3289'>0.78859E+02</wgt>
<wgt id='3290'>0.79352E+02</wgt>
<wgt id='3291'>0.76779E+02</wgt>
<wgt id='3292'>0.77447E+02</wgt>
<wgt id='3293'>0.78260E+02</wgt>
<wgt id='3294'>0.76642E+02</wgt>
<wgt id='3295'>0.77800E+02</wgt>
<wgt id='3296'>0.79390E+02</wgt>
<wgt id='3297'>0.77771E+02</wgt>
<wgt id='3298'>0.77979E+02</wgt>
<wgt id='3299'>0.77827E+02</wgt>
<wgt id='3300'>0.78778E+02</wgt>
<wgt id='3301'>0.76890E+02</wgt>
<wgt id='3302'>0.79300E+02</wgt>
<wgt id='3400'>0.78657E+02</wgt>
<wgt id='3401'>0.78769E+02</wgt>
<wgt id='3402'>0.77991E+02</wgt>
<wgt id='3403'>0.79290E+02</wgt>
<wgt id='3404'>0.79538E+02</wgt>
<wgt id='3405'>0.79664E+02</wgt>
<wgt id='3406'>0.78346E+02</wgt>
<wgt id='3407'>0.77825E+02</wgt>
<wgt id='3408'>0.79778E+02</wgt>
<wgt id='3409'>0.79785E+02</wgt>
<wgt id='3410'>0.79300E+02</wgt>
<wgt id='3411'>0.78804E+02</wgt>
<wgt id='3412'>0.78956E+02</wgt>
<wgt id='3413'>0.78512E+02</wgt>
<wgt id='3414'>0.78794E+02</wgt>
<wgt id='3415'>0.78793E+02</wgt>
<wgt id='3416'>0.78482E+02</wgt>
<wgt id='3417'>0.78179E+02</wgt>
<wgt id='3418'>0.78248E+02</wgt>
<wgt id='3419'>0.78048E+02</wgt>
<wgt id='3420'>0.78995E+02</wgt>
<wgt id='3421'>0.79359E+02</wgt>
<wgt id='3422'>0.78697E+02</wgt>
<wgt id='3423'>0.79450E+02</wgt>
<wgt id='3424'>0.78965E+02</wgt>
<wgt id='3425'>0.78977E+02</wgt>
<wgt id='3426'>0.78447E+02</wgt>
<wgt id='3427'>0.78933E+02</wgt>
<wgt id='3428'>0.78985E+02</wgt>
<wgt id='3429'>0.78127E+02</wgt>
<wgt id='3430'>0.78635E+02</wgt>
<wgt id='3431'>0.78283E+02</wgt>
<wgt id='3432'>0.77817E+02</wgt>
<wgt id='3433'>0.77661E+02</wgt>
<wgt id='3434'>0.78957E+02</wgt>
<wgt id='3435'>0.79230E+02</wgt>
<wgt id='3436'>0.78566E+02</wgt>
<wgt id='3437'>0.78125E+02</wgt>
<wgt id='3438'>0.77966E+02</wgt>
<wgt id='3439'>0.79270E+02</wgt>
<wgt id='3440'>0.78901E+02</wgt>
<wgt id='3441'>0.78760E+02</wgt>
<wgt id='3442'>0.77790E+02</wgt>
<wgt id='3443'>0.78553E+02</wgt>
<wgt id='3444'>0.78851E+02</wgt>
<wgt id='3445'>0.78277E+02</wgt>
<wgt id='3446'>0.79824E+02</wgt>
<wgt id='3447'>0.79548E+02</wgt>
<wgt id='3448'>0.79049E+02</wgt>
<wgt id='3449'>0.79669E+02</wgt>
<wgt id='3450'>0.78894E+02</wgt>
<wgt id='3451'>0.78931E+02</wgt>
<wgt id='3452'>0.78209E+02</wgt>
<wgt id='3453'>0.77723E+02</wgt>
<wgt id='3454'>0.77957E+02</wgt>
<wgt id='3455'>0.79471E+02</wgt>
<wgt id='3456'>0.78876E+02</wgt>
<wgt id='3457'>0.80132E+02</wgt>
<wgt id='3458'>0.79039E+02</wgt>
<wgt id='3459'>0.78649E+02</wgt>
<wgt id='3460'>0.78646E+02</wgt>
<wgt id='3461'>0.78349E+02</wgt>
<wgt id='3462'>0.78569E+02</wgt>
<wgt id='3463'>0.78212E+02</wgt>
<wgt id='3464'>0.78852E+02</wgt>
<wgt id='3465'>0.78719E+02</wgt>
<wgt id='3466'>0.79253E+02</wgt>
<wgt id='3467'>0.78275E+02</wgt>
<wgt id='3468'>0.78648E+02</wgt>
<wgt id='3469'>0.78854E+02</wgt>
<wgt id='3470'>0.78424E+02</wgt>
<wgt id='3471'>0.78332E+02</wgt>
<wgt id='3472'>0.78022E+02</wgt>
<wgt id='3473'>0.78927E+02</wgt>
<wgt id='3474'>0.78839E+02</wgt>
<wgt id='3475'>0.78598E+02</wgt>
<wgt id='3476'>0.78350E+02</wgt>
<wgt id='3477'>0.78388E+02</wgt>
<wgt id='3478'>0.79496E+02</wgt>
<wgt id='3479'>0.78755E+02</wgt>
<wgt id='3480'>0.77923E+02</wgt>
<wgt id='3481'>0.78306E+02</wgt>
<wgt id='3482'>0.78952E+02</wgt>
<wgt id='3483'>0.77616E+02</wgt>
<wgt id='3484'>0.78878E+02</wgt>
<wgt id='3485'>0.78212E+02</wgt>
<wgt id='3486'>0.77833E+02</wgt>
<wgt id='3487'>0.79338E+02</wgt>
<wgt id='3488'>0.78831E+02</wgt>
<wgt id='3489'>0.78120E+02</wgt>
<wgt id='3490'>0.79659E+02</wgt>
<wgt id='3491'>0.78045E+02</wgt>
<wgt id='3492'>0.78917E+02</wgt>
<wgt id='3493'>0.77789E+02</wgt>
<wgt id='3494'>0.76625E+02</wgt>
<wgt id='3495'>0.78923E+02</wgt>
<wgt id='3496'>0.77803E+02</wgt>
<wgt id='3497'>0.78305E+02</wgt>
<wgt id='3498'>0.78300E+02</wgt>
<wgt id='3499'>0.78645E+02</wgt>
<wgt id='3500'>0.78605E+02</wgt>
</rwgt>
</event>
<event>
     13 322200  8.11039E+01  8.98929E+00 -1.00000E+00  1.96983E-01
       2    -1     0     0   502     0  0.000000000E+00  0.000000000E+00  2.004179624E+03  2.004179624E+03  0.000000000E+00  0.00000E+00  9.000E+00
      21    -1     0     0   512   513  0.000000000E+00  0.000000000E+00 -3.446856938E+01  3.446856938E+01  0.000000000E+00  0.00000E+00  9.000E+00
       6     2     1     2   502     0 -4.437064176E+01 -4.653699159E+01  3.690868567E+02  4.137043191E+02  1.754756690E+02  0.00000E+00  9.000E+00
      -6     2     1     2     0   513  3.750107902E+01  4.073903846E+01  6.620516453E+02  6.863282512E+02  1.722442662E+02  0.00000E+00  9.000E+00
       2     1     1     2   512     0  6.869562734E+00  5.797953132E+00  9.385725531E+02  9.386156235E+02  2.100000000E-01  0.00000E+00  9.000E+00
      24     2     3     3     0     0 -9.084059025E+01 -3.743964234E+01  1.879813526E+02  2.264424033E+02  7.928072555E+01  0.00000E+00  9.000E+00
       5     1     3     3   502     0  4.646994850E+01 -9.097349245E+00  1.811055041E+02  1.872619158E+02  5.060000000E+00  0.00000E+00 -1.000E+00
     -24     2     4     4     0     0 -1.245855720E+00  8.977961317E+01  4.850821051E+02  4.985780856E+02  7.220476244E+01  0.00000E+00  9.000E+00
      -5     1     4     4     0   513  3.874693474E+01 -4.904057471E+01  1.769695402E+02  1.877501656E+02  5.060000000E+00  0.00000E+00  1.000E+00
     -15     1     6     6     0     0 -3.240355728E+01  2.405717878E+01  4.773125107E+01  6.253133961E+01  1.777000000E+00  0.00000E+00  1.000E+00
      16     1     6     6     0     0 -5.843703297E+01 -6.149682113E+01  1.402501015E+02  1.639110637E+02  0.000000000E+00  0.00000E+00 -1.000E+00
      11     1     8     8     0     0 -1.720970881E+00  3.085206798E+01  4.511796946E+01  5.468494316E+01  5.100000000E-04  0.00000E+00 -1.000E+00
     -12     1     8     8     0     0  4.751151619E-01  5.892754519E+01  4.399641356E+02  4.438931425E+02  0.000000000E+00  0.00000E+00  1.000E+00
#rwgt            1           1   603.23108370623481               10       19690           0
<rwgt>
<wgt id='1001'>0.81104E+02</wgt>
<wgt id='1002'>0.91827E+02</wgt>
<wgt id='1003'>0.69196E+02</wgt>
<wgt id='1004'>0.68776E+02</wgt>
<wgt id='1005'>0.76669E+02</wgt>
<wgt id='1006'>0.59962E+02</wgt>
<wgt id='1007'>0.97154E+02</wgt>
<wgt id='1008'>0.11211E+03</wgt>
<wgt id='1009'>0.80635E+02</wgt>
<wgt id='2000'>0.81104E+02</wgt>
<wgt id='2001'>0.80964E+02</wgt>
<wgt id='2002'>0.81039E+02</wgt>
<wgt id='2003'>0.81178E+02</wgt>
<wgt id='2004'>0.81451E+02</wgt>
<wgt id='2005'>0.80869E+02</wgt>
<wgt id='2006'>0.81279E+02</wgt>
<wgt id='2007'>0.81207E+02</wgt>
<wgt id='2008'>0.81050E+02</wgt>
<wgt id='2009'>0.81370E+02</wgt>
<wgt id='2010'>0.81099E+02</wgt>
<wgt id='2011'>0.81267E+02</wgt>
<wgt id='2012'>0.81306E+02</wgt>
<wgt id='2013'>0.81070E+02</wgt>
<wgt id='2014'>0.81058E+02</wgt>
<wgt id='2015'>0.81118E+02</wgt>
<wgt id='2016'>0.81028E+02</wgt>
<wgt id='2017'>0.81057E+02</wgt>
<wgt id='2018'>0.80835E+02</wgt>
<wgt id='2019'>0.80601E+02</wgt>
<wgt id='2020'>0.80908E+02</wgt>
<wgt id='2021'>0.81182E+02</wgt>
<wgt id='2022'>0.80957E+02</wgt>
<wgt id='2023'>0.81223E+02</wgt>
<wgt id='2024'>0.80510E+02</wgt>
<wgt id='2025'>0.81427E+02</wgt>
<wgt id='2026'>0.81231E+02</wgt>
<wgt id='2027'>0.81489E+02</wgt>
<wgt id='2028'>0.80811E+02</wgt>
<wgt id='2029'>0.80945E+02</wgt>
<wgt id='2030'>0.81187E+02</wgt>
<wgt id='2031'>0.80758E+02</wgt>
<wgt id='2032'>0.80965E+02</wgt>
<wgt id='2033'>0.80934E+02</wgt>
<wgt id='2034'>0.80802E+02</wgt>
<wgt id='2035'>0.81156E+02</wgt>
<wgt id='2036'>0.81261E+02</wgt>
<wgt id='2037'>0.80932E+02</wgt>
<wgt id='2038'>0.81035E+02</wgt>
<wgt id='2039'>0.81001E+02</wgt>
<wgt id='2040'>0.80937E+02</wgt>
<wgt id='2041'>0.81020E+02</wgt>
<wgt id='2042'>0.81279E+02</wgt>
<wgt id='2043'>0.81130E+02</wgt>
<wgt id='2044'>0.81142E+02</wgt>
<wgt id='2045'>0.81086E+02</wgt>
<wgt id='2046'>0.81011E+02</wgt>
<wgt id='2047'>0.81127E+02</wgt>
<wgt id='2048'>0.81048E+02</wgt>
<wgt id='2049'>0.81035E+02</wgt>
<wgt id='2050'>0.80999E+02</wgt>
<wgt id='2051'>0.81003E+02</wgt>
<wgt id='2052'>0.81238E+02</wgt>
<wgt id='2053'>0.81070E+02</wgt>
<wgt id='2054'>0.81066E+02</wgt>
<wgt id='2055'>0.81057E+02</wgt>
<wgt id='2056'>0.81050E+02</wgt>
<wgt id='2057'>0.81153E+02</wgt>
<wgt id='2058'>0.81166E+02</wgt>
<wgt id='2059'>0.81088E+02</wgt>
<wgt id='2060'>0.81095E+02</wgt>
<wgt id='2061'>0.81043E+02</wgt>
<wgt id='2062'>0.81202E+02</wgt>
<wgt id='2063'>0.81117E+02</wgt>
<wgt id='2064'>0.81105E+02</wgt>
<wgt id='2065'>0.81175E+02</wgt>
<wgt id='2066'>0.81056E+02</wgt>
<wgt id='2067'>0.81061E+02</wgt>
<wgt id='2068'>0.81171E+02</wgt>
<wgt id='2069'>0.81099E+02</wgt>
<wgt id='2070'>0.81115E+02</wgt>
<wgt id='2071'>0.81089E+02</wgt>
<wgt id='2072'>0.81075E+02</wgt>
<wgt id='2073'>0.81121E+02</wgt>
<wgt id='2074'>0.81076E+02</wgt>
<wgt id='2075'>0.81083E+02</wgt>
<wgt id='2076'>0.81097E+02</wgt>
<wgt id='2077'>0.81157E+02</wgt>
<wgt id='2078'>0.81121E+02</wgt>
<wgt id='2079'>0.81088E+02</wgt>
<wgt id='2080'>0.81118E+02</wgt>
<wgt id='2081'>0.81089E+02</wgt>
<wgt id='2082'>0.81124E+02</wgt>
<wgt id='2083'>0.81158E+02</wgt>
<wgt id='2084'>0.81095E+02</wgt>
<wgt id='2085'>0.81113E+02</wgt>
<wgt id='2086'>0.81090E+02</wgt>
<wgt id='2087'>0.81114E+02</wgt>
<wgt id='2088'>0.81092E+02</wgt>
<wgt id='2089'>0.81085E+02</wgt>
<wgt id='2090'>0.81128E+02</wgt>
<wgt id='2091'>0.81117E+02</wgt>
<wgt id='2092'>0.81140E+02</wgt>
<wgt id='2093'>0.81074E+02</wgt>
<wgt id='2094'>0.81113E+02</wgt>
<wgt id='2095'>0.81129E+02</wgt>
<wgt id='2096'>0.81085E+02</wgt>
<wgt id='2097'>0.81126E+02</wgt>
<wgt id='2098'>0.81108E+02</wgt>
<wgt id='2099'>0.81119E+02</wgt>
<wgt id='2100'>0.81104E+02</wgt>
<wgt id='2101'>0.79091E+02</wgt>
<wgt id='2102'>0.83298E+02</wgt>
<wgt id='2200'>0.80924E+02</wgt>
<wgt id='2201'>0.69729E+02</wgt>
<wgt id='2202'>0.71988E+02</wgt>
<wgt id='2203'>0.74364E+02</wgt>
<wgt id='2204'>0.76094E+02</wgt>
<wgt id='2205'>0.79692E+02</wgt>
<wgt id='2206'>0.82337E+02</wgt>
<wgt id='2207'>0.85720E+02</wgt>
<wgt id='2208'>0.88512E+02</wgt>
<wgt id='2300'>0.86595E+02</wgt>
<wgt id='2301'>0.86714E+02</wgt>
<wgt id='2302'>0.86519E+02</wgt>
<wgt id='2303'>0.86547E+02</wgt>
<wgt id='2304'>0.86858E+02</wgt>
<wgt id='2305'>0.86602E+02</wgt>
<wgt id='2306'>0.86584E+02</wgt>
<wgt id='2307'>0.86504E+02</wgt>
<wgt id='2308'>0.86477E+02</wgt>
<wgt id='2309'>0.86357E+02</wgt>
<wgt id='2310'>0.86330E+02</wgt>
<wgt id='2311'>0.86669E+02</wgt>
<wgt id='2312'>0.86761E+02</wgt>
<wgt id='2313'>0.86563E+02</wgt>
<wgt id='2314'>0.86502E+02</wgt>
<wgt id='2315'>0.86582E+02</wgt>
<wgt id='2316'>0.86699E+02</wgt>
<wgt id='2317'>0.86541E+02</wgt>
<wgt id='2318'>0.86642E+02</wgt>
<wgt id='2319'>0.86653E+02</wgt>
<wgt id='2320'>0.86739E+02</wgt>
<wgt id='2321'>0.86780E+02</wgt>
<wgt id='2322'>0.86513E+02</wgt>
<wgt id='2323'>0.86493E+02</wgt>
<wgt id='2324'>0.86607E+02</wgt>
<wgt id='2325'>0.86612E+02</wgt>
<wgt id='2326'>0.86473E+02</wgt>
<wgt id='2327'>0.86672E+02</wgt>
<wgt id='2328'>0.86549E+02</wgt>
<wgt id='2329'>0.86576E+02</wgt>
<wgt id='2330'>0.86970E+02</wgt>
<wgt id='2331'>0.86764E+02</wgt>
<wgt id='2332'>0.86355E+02</wgt>
<wgt id='2333'>0.86333E+02</wgt>
<wgt id='2334'>0.86598E+02</wgt>
<wgt id='2335'>0.85929E+02</wgt>
<wgt id='2336'>0.86627E+02</wgt>
<wgt id='2337'>0.86995E+02</wgt>
<wgt id='2338'>0.86629E+02</wgt>
<wgt id='2339'>0.86627E+02</wgt>
<wgt id='2340'>0.87054E+02</wgt>
<wgt id='2341'>0.86821E+02</wgt>
<wgt id='2342'>0.86274E+02</wgt>
<wgt id='2343'>0.86290E+02</wgt>
<wgt id='2344'>0.86667E+02</wgt>
<wgt id='2345'>0.86640E+02</wgt>
<wgt id='2346'>0.86958E+02</wgt>
<wgt id='2347'>0.86537E+02</wgt>
<wgt id='2348'>0.86756E+02</wgt>
<wgt id='2349'>0.86581E+02</wgt>
<wgt id='2350'>0.86373E+02</wgt>
<wgt id='2351'>0.86744E+02</wgt>
<wgt id='2352'>0.86411E+02</wgt>
<wgt id='2353'>0.86598E+02</wgt>
<wgt id='2354'>0.86661E+02</wgt>
<wgt id='2355'>0.86361E+02</wgt>
<wgt id='2356'>0.86545E+02</wgt>
<wgt id='2357'>0.86549E+02</wgt>
<wgt id='2358'>0.86504E+02</wgt>
<wgt id='2359'>0.86530E+02</wgt>
<wgt id='2360'>0.86733E+02</wgt>
<wgt id='2361'>0.86560E+02</wgt>
<wgt id='2362'>0.86681E+02</wgt>
<wgt id='2363'>0.86515E+02</wgt>
<wgt id='2364'>0.86538E+02</wgt>
<wgt id='2365'>0.86477E+02</wgt>
<wgt id='2366'>0.86629E+02</wgt>
<wgt id='2367'>0.86388E+02</wgt>
<wgt id='2368'>0.86659E+02</wgt>
<wgt id='2369'>0.86545E+02</wgt>
<wgt id='2370'>0.86596E+02</wgt>
<wgt id='2371'>0.86517E+02</wgt>
<wgt id='2372'>0.86594E+02</wgt>
<wgt id='2373'>0.86563E+02</wgt>
<wgt id='2374'>0.86641E+02</wgt>
<wgt id='2375'>0.86626E+02</wgt>
<wgt id='2376'>0.86605E+02</wgt>
<wgt id='2377'>0.86620E+02</wgt>
<wgt id='2378'>0.86638E+02</wgt>
<wgt id='2379'>0.86542E+02</wgt>
<wgt id='2380'>0.86592E+02</wgt>
<wgt id='2381'>0.86567E+02</wgt>
<wgt id='2382'>0.86602E+02</wgt>
<wgt id='2383'>0.86494E+02</wgt>
<wgt id='2384'>0.86494E+02</wgt>
<wgt id='2385'>0.86688E+02</wgt>
<wgt id='2386'>0.86521E+02</wgt>
<wgt id='2387'>0.86515E+02</wgt>
<wgt id='2388'>0.86541E+02</wgt>
<wgt id='2389'>0.86573E+02</wgt>
<wgt id='2390'>0.86662E+02</wgt>
<wgt id='2391'>0.86616E+02</wgt>
<wgt id='2392'>0.86579E+02</wgt>
<wgt id='2393'>0.86601E+02</wgt>
<wgt id='2394'>0.86646E+02</wgt>
<wgt id='2395'>0.86592E+02</wgt>
<wgt id='2396'>0.86574E+02</wgt>
<wgt id='2397'>0.86573E+02</wgt>
<wgt id='2398'>0.86540E+02</wgt>
<wgt id='2399'>0.86588E+02</wgt>
<wgt id='2400'>0.86634E+02</wgt>
<wgt id='2401'>0.84293E+02</wgt>
<wgt id='2402'>0.89337E+02</wgt>
<wgt id='2500'>0.82417E+02</wgt>
<wgt id='2501'>0.87228E+02</wgt>
<wgt id='2600'>0.79166E+02</wgt>
<wgt id='2601'>0.78882E+02</wgt>
<wgt id='2602'>0.79358E+02</wgt>
<wgt id='2603'>0.79160E+02</wgt>
<wgt id='2604'>0.79260E+02</wgt>
<wgt id='2605'>0.79091E+02</wgt>
<wgt id='2606'>0.79280E+02</wgt>
<wgt id='2607'>0.79187E+02</wgt>
<wgt id='2608'>0.79319E+02</wgt>
<wgt id='2609'>0.79089E+02</wgt>
<wgt id='2610'>0.79109E+02</wgt>
<wgt id='2611'>0.79154E+02</wgt>
<wgt id='2612'>0.79118E+02</wgt>
<wgt id='2613'>0.79189E+02</wgt>
<wgt id='2614'>0.79084E+02</wgt>
<wgt id='2615'>0.78999E+02</wgt>
<wgt id='2616'>0.79228E+02</wgt>
<wgt id='2617'>0.78965E+02</wgt>
<wgt id='2618'>0.79197E+02</wgt>
<wgt id='2619'>0.79242E+02</wgt>
<wgt id='2620'>0.78989E+02</wgt>
<wgt id='2621'>0.79305E+02</wgt>
<wgt id='2622'>0.79528E+02</wgt>
<wgt id='2623'>0.79130E+02</wgt>
<wgt id='2624'>0.79110E+02</wgt>
<wgt id='2625'>0.79299E+02</wgt>
<wgt id='2626'>0.79216E+02</wgt>
<wgt id='2627'>0.79295E+02</wgt>
<wgt id='2628'>0.79120E+02</wgt>
<wgt id='2629'>0.79267E+02</wgt>
<wgt id='2630'>0.79393E+02</wgt>
<wgt id='2631'>0.79035E+02</wgt>
<wgt id='2632'>0.78996E+02</wgt>
<wgt id='2633'>0.79084E+02</wgt>
<wgt id='2634'>0.79012E+02</wgt>
<wgt id='2635'>0.79014E+02</wgt>
<wgt id='2636'>0.79224E+02</wgt>
<wgt id='2637'>0.79164E+02</wgt>
<wgt id='2638'>0.79107E+02</wgt>
<wgt id='2639'>0.79184E+02</wgt>
<wgt id='2640'>0.79147E+02</wgt>
<wgt id='2641'>0.79114E+02</wgt>
<wgt id='2642'>0.79164E+02</wgt>
<wgt id='2643'>0.79089E+02</wgt>
<wgt id='2644'>0.79163E+02</wgt>
<wgt id='2645'>0.79132E+02</wgt>
<wgt id='2646'>0.79209E+02</wgt>
<wgt id='2647'>0.79142E+02</wgt>
<wgt id='2648'>0.79147E+02</wgt>
<wgt id='2649'>0.79171E+02</wgt>
<wgt id='2650'>0.79186E+02</wgt>
<wgt id='2651'>0.77703E+02</wgt>
<wgt id='2652'>0.80283E+02</wgt>
<wgt id='2700'>0.76491E+02</wgt>
<wgt id='2701'>0.77703E+02</wgt>
<wgt id='2702'>0.78488E+02</wgt>
<wgt id='2703'>0.79856E+02</wgt>
<wgt id='2704'>0.80283E+02</wgt>
<wgt id='2705'>0.81795E+02</wgt>
<wgt id='2800'>0.81338E+02</wgt>
<wgt id='4000'>0.82924E+02</wgt>
<wgt id='4001'>0.83082E+02</wgt>
<wgt id='4002'>0.82910E+02</wgt>
<wgt id='4003'>0.82103E+02</wgt>
<wgt id='4004'>0.83841E+02</wgt>
<wgt id='4005'>0.83254E+02</wgt>
<wgt id='4006'>0.82791E+02</wgt>
<wgt id='4007'>0.83274E+02</wgt>
<wgt id='4008'>0.82640E+02</wgt>
<wgt id='4009'>0.82319E+02</wgt>
<wgt id='4010'>0.83150E+02</wgt>
<wgt id='4011'>0.83509E+02</wgt>
<wgt id='4012'>0.82213E+02</wgt>
<wgt id='4013'>0.82856E+02</wgt>
<wgt id='4014'>0.83102E+02</wgt>
<wgt id='4015'>0.83108E+02</wgt>
<wgt id='4016'>0.83739E+02</wgt>
<wgt id='4017'>0.83000E+02</wgt>
<wgt id='4018'>0.82856E+02</wgt>
<wgt id='4019'>0.82783E+02</wgt>
<wgt id='4020'>0.83229E+02</wgt>
<wgt id='4021'>0.83158E+02</wgt>
<wgt id='4022'>0.82516E+02</wgt>
<wgt id='4023'>0.83347E+02</wgt>
<wgt id='4024'>0.83193E+02</wgt>
<wgt id='4025'>0.82829E+02</wgt>
<wgt id='4026'>0.83305E+02</wgt>
<wgt id='4027'>0.83707E+02</wgt>
<wgt id='4028'>0.82245E+02</wgt>
<wgt id='4029'>0.84206E+02</wgt>
<wgt id='4030'>0.81794E+02</wgt>
<wgt id='4031'>0.82804E+02</wgt>
<wgt id='4032'>0.84318E+02</wgt>
<wgt id='4033'>0.83667E+02</wgt>
<wgt id='4034'>0.82237E+02</wgt>
<wgt id='4035'>0.83055E+02</wgt>
<wgt id='4036'>0.82808E+02</wgt>
<wgt id='4037'>0.85471E+02</wgt>
<wgt id='4038'>0.81007E+02</wgt>
<wgt id='4039'>0.84560E+02</wgt>
<wgt id='4040'>0.81458E+02</wgt>
<wgt id='4041'>0.83570E+02</wgt>
<wgt id='4042'>0.82256E+02</wgt>
<wgt id='4043'>0.83155E+02</wgt>
<wgt id='4044'>0.82002E+02</wgt>
<wgt id='4045'>0.82841E+02</wgt>
<wgt id='4046'>0.82948E+02</wgt>
<wgt id='4047'>0.83485E+02</wgt>
<wgt id='4048'>0.82948E+02</wgt>
<wgt id='4049'>0.83074E+02</wgt>
<wgt id='4050'>0.82841E+02</wgt>
<wgt id='4051'>0.83089E+02</wgt>
<wgt id='4052'>0.83022E+02</wgt>
<wgt id='4053'>0.82547E+02</wgt>
<wgt id='4054'>0.82727E+02</wgt>
<wgt id='4055'>0.83286E+02</wgt>
<wgt id='4056'>0.82543E+02</wgt>
<wgt id='4057'>0.82362E+02</wgt>
<wgt id='4058'>0.83311E+02</wgt>
<wgt id='4100'>0.83337E+02</wgt>
<wgt id='4101'>0.83089E+02</wgt>
<wgt id='4102'>0.82823E+02</wgt>
<wgt id='4103'>0.82761E+02</wgt>
<wgt id='4200'>0.81715E+02</wgt>
<wgt id='4201'>0.81588E+02</wgt>
<wgt id='4202'>0.81935E+02</wgt>
<wgt id='4203'>0.81461E+02</wgt>
<wgt id='4204'>0.81779E+02</wgt>
<wgt id='4205'>0.81691E+02</wgt>
<wgt id='4206'>0.81894E+02</wgt>
<wgt id='4207'>0.82393E+02</wgt>
<wgt id='4208'>0.81253E+02</wgt>
<wgt id='4209'>0.81323E+02</wgt>
<wgt id='4210'>0.81965E+02</wgt>
<wgt id='4211'>0.82172E+02</wgt>
<wgt id='4212'>0.81352E+02</wgt>
<wgt id='4213'>0.81838E+02</wgt>
<wgt id='4214'>0.81494E+02</wgt>
<wgt id='4215'>0.81637E+02</wgt>
<wgt id='4216'>0.82009E+02</wgt>
<wgt id='4217'>0.81766E+02</wgt>
<wgt id='4218'>0.81619E+02</wgt>
<wgt id='4219'>0.81604E+02</wgt>
<wgt id='4220'>0.81866E+02</wgt>
<wgt id='4221'>0.81362E+02</wgt>
<wgt id='4222'>0.82306E+02</wgt>
<wgt id='4223'>0.80625E+02</wgt>
<wgt id='4224'>0.81805E+02</wgt>
<wgt id='4225'>0.81085E+02</wgt>
<wgt id='4226'>0.82625E+02</wgt>
<wgt id='4227'>0.82247E+02</wgt>
<wgt id='4228'>0.81258E+02</wgt>
<wgt id='4229'>0.80425E+02</wgt>
<wgt id='4230'>0.82803E+02</wgt>
<wgt id='4231'>0.81956E+02</wgt>
<wgt id='4232'>0.81287E+02</wgt>
<wgt id='4233'>0.81756E+02</wgt>
<wgt id='4234'>0.81159E+02</wgt>
<wgt id='4235'>0.82569E+02</wgt>
<wgt id='4236'>0.80810E+02</wgt>
<wgt id='4237'>0.83113E+02</wgt>
<wgt id='4238'>0.79806E+02</wgt>
<wgt id='4239'>0.81160E+02</wgt>
<wgt id='4240'>0.81976E+02</wgt>
<wgt id='4241'>0.81847E+02</wgt>
<wgt id='4242'>0.81549E+02</wgt>
<wgt id='4243'>0.82108E+02</wgt>
<wgt id='4244'>0.81341E+02</wgt>
<wgt id='4245'>0.81848E+02</wgt>
<wgt id='4246'>0.81249E+02</wgt>
<wgt id='4247'>0.81060E+02</wgt>
<wgt id='4248'>0.82063E+02</wgt>
<wgt id='4249'>0.82556E+02</wgt>
<wgt id='4250'>0.80679E+02</wgt>
<wgt id='4251'>0.82559E+02</wgt>
<wgt id='4252'>0.81114E+02</wgt>
<wgt id='4253'>0.82083E+02</wgt>
<wgt id='4254'>0.81075E+02</wgt>
<wgt id='4255'>0.83227E+02</wgt>
<wgt id='4256'>0.80916E+02</wgt>
<wgt id='4257'>0.80378E+02</wgt>
<wgt id='4258'>0.82102E+02</wgt>
<wgt id='4300'>0.82000E+02</wgt>
<wgt id='4301'>0.83234E+02</wgt>
<wgt id='5000'>0.82817E+02</wgt>
<wgt id='5001'>0.82861E+02</wgt>
<wgt id='5002'>0.82760E+02</wgt>
<wgt id='5003'>0.82832E+02</wgt>
<wgt id='5004'>0.82803E+02</wgt>
<wgt id='5005'>0.82831E+02</wgt>
<wgt id='5006'>0.82793E+02</wgt>
<wgt id='5007'>0.82917E+02</wgt>
<wgt id='5008'>0.82735E+02</wgt>
<wgt id='5009'>0.82898E+02</wgt>
<wgt id='5010'>0.82733E+02</wgt>
<wgt id='5011'>0.83063E+02</wgt>
<wgt id='5012'>0.82580E+02</wgt>
<wgt id='5013'>0.82881E+02</wgt>
<wgt id='5014'>0.82771E+02</wgt>
<wgt id='5015'>0.82441E+02</wgt>
<wgt id='5016'>0.82441E+02</wgt>
<wgt id='5017'>0.83163E+02</wgt>
<wgt id='5018'>0.82583E+02</wgt>
<wgt id='5019'>0.83116E+02</wgt>
<wgt id='5020'>0.82406E+02</wgt>
<wgt id='5021'>0.82921E+02</wgt>
<wgt id='5022'>0.82651E+02</wgt>
<wgt id='5023'>0.82751E+02</wgt>
<wgt id='5024'>0.82975E+02</wgt>
<wgt id='5025'>0.82582E+02</wgt>
<wgt id='5026'>0.83079E+02</wgt>
<wgt id='5027'>0.82870E+02</wgt>
<wgt id='5028'>0.82674E+02</wgt>
<wgt id='5029'>0.83749E+02</wgt>
<wgt id='5030'>0.82291E+02</wgt>
<wgt id='5031'>0.82287E+02</wgt>
<wgt id='5032'>0.84430E+02</wgt>
<wgt id='5033'>0.82751E+02</wgt>
<wgt id='5034'>0.82887E+02</wgt>
<wgt id='5035'>0.82825E+02</wgt>
<wgt id='5036'>0.82808E+02</wgt>
<wgt id='5037'>0.82556E+02</wgt>
<wgt id='5038'>0.82965E+02</wgt>
<wgt id='5039'>0.82978E+02</wgt>
<wgt id='5040'>0.82423E+02</wgt>
<wgt id='5041'>0.82452E+02</wgt>
<wgt id='5042'>0.83190E+02</wgt>
<wgt id='5043'>0.82979E+02</wgt>
<wgt id='5044'>0.82718E+02</wgt>
<wgt id='5045'>0.83083E+02</wgt>
<wgt id='5046'>0.82305E+02</wgt>
<wgt id='5047'>0.82908E+02</wgt>
<wgt id='5048'>0.82422E+02</wgt>
<wgt id='5049'>0.82721E+02</wgt>
<wgt id='5050'>0.83058E+02</wgt>
<wgt id='5051'>0.83067E+02</wgt>
<wgt id='5052'>0.82646E+02</wgt>
<wgt id='5053'>0.83014E+02</wgt>
<wgt id='5054'>0.82984E+02</wgt>
<wgt id='5055'>0.82864E+02</wgt>
<wgt id='5056'>0.82906E+02</wgt>
<wgt id='5057'>0.82465E+02</wgt>
<wgt id='5058'>0.83064E+02</wgt>
<wgt id='5059'>0.82677E+02</wgt>
<wgt id='5060'>0.82903E+02</wgt>
<wgt id='5061'>0.83057E+02</wgt>
<wgt id='5062'>0.83056E+02</wgt>
<wgt id='5063'>0.83086E+02</wgt>
<wgt id='5064'>0.82930E+02</wgt>
<wgt id='5100'>0.82817E+02</wgt>
<wgt id='5101'>0.82803E+02</wgt>
<wgt id='6000'>0.82008E+02</wgt>
<wgt id='6001'>0.81559E+02</wgt>
<wgt id='6002'>0.81390E+02</wgt>
<wgt id='6003'>0.81751E+02</wgt>
<wgt id='6004'>0.82367E+02</wgt>
<wgt id='6005'>0.81453E+02</wgt>
<wgt id='6006'>0.81976E+02</wgt>
<wgt id='6007'>0.81410E+02</wgt>
<wgt id='6008'>0.82385E+02</wgt>
<wgt id='6009'>0.81802E+02</wgt>
<wgt id='6010'>0.82234E+02</wgt>
<wgt id='6011'>0.82026E+02</wgt>
<wgt id='6012'>0.82193E+02</wgt>
<wgt id='6013'>0.81546E+02</wgt>
<wgt id='6014'>0.81656E+02</wgt>
<wgt id='6015'>0.81436E+02</wgt>
<wgt id='6016'>0.82472E+02</wgt>
<wgt id='6017'>0.81564E+02</wgt>
<wgt id='6018'>0.81368E+02</wgt>
<wgt id='6019'>0.82075E+02</wgt>
<wgt id='6020'>0.82218E+02</wgt>
<wgt id='6021'>0.81867E+02</wgt>
<wgt id='6022'>0.82199E+02</wgt>
<wgt id='6023'>0.81931E+02</wgt>
<wgt id='6024'>0.82097E+02</wgt>
<wgt id='6025'>0.82570E+02</wgt>
<wgt id='6026'>0.81842E+02</wgt>
<wgt id='6027'>0.82047E+02</wgt>
<wgt id='6028'>0.81548E+02</wgt>
<wgt id='6029'>0.81770E+02</wgt>
<wgt id='6030'>0.81376E+02</wgt>
<wgt id='6031'>0.81735E+02</wgt>
<wgt id='6032'>0.81966E+02</wgt>
<wgt id='6033'>0.81887E+02</wgt>
<wgt id='6034'>0.82385E+02</wgt>
<wgt id='6035'>0.82067E+02</wgt>
<wgt id='6036'>0.82947E+02</wgt>
<wgt id='6037'>0.81991E+02</wgt>
<wgt id='6038'>0.81907E+02</wgt>
<wgt id='6039'>0.82212E+02</wgt>
<wgt id='6040'>0.82008E+02</wgt>
<wgt id='6041'>0.80721E+02</wgt>
<wgt id='6042'>0.83357E+02</wgt>
<wgt id='7000'>0.80980E+02</wgt>
<wgt id='7001'>0.80682E+02</wgt>
<wgt id='7002'>0.80834E+02</wgt>
<wgt id='7003'>0.80780E+02</wgt>
<wgt id='7004'>0.80736E+02</wgt>
<wgt id='7005'>0.80840E+02</wgt>
<wgt id='7006'>0.80676E+02</wgt>
<wgt id='7007'>0.81180E+02</wgt>
<wgt id='7008'>0.80346E+02</wgt>
<wgt id='7009'>0.80428E+02</wgt>
<wgt id='7010'>0.81099E+02</wgt>
<wgt id='7011'>0.81025E+02</wgt>
<wgt id='7012'>0.80498E+02</wgt>
<wgt id='7013'>0.80691E+02</wgt>
<wgt id='7014'>0.80822E+02</wgt>
<wgt id='7015'>0.80941E+02</wgt>
<wgt id='7016'>0.80463E+02</wgt>
<wgt id='7017'>0.80608E+02</wgt>
<wgt id='7018'>0.80912E+02</wgt>
<wgt id='7019'>0.81102E+02</wgt>
<wgt id='7020'>0.80427E+02</wgt>
<wgt id='7021'>0.81813E+02</wgt>
<wgt id='7022'>0.79721E+02</wgt>
<wgt id='7023'>0.79683E+02</wgt>
<wgt id='7024'>0.81837E+02</wgt>
<wgt id='7025'>0.79258E+02</wgt>
<wgt id='7026'>0.82172E+02</wgt>
<wgt id='7027'>0.80110E+02</wgt>
<wgt id='7028'>0.81489E+02</wgt>
<wgt id='8000'>0.81162E+02</wgt>
<wgt id='8001'>0.81150E+02</wgt>
<wgt id='8002'>0.81186E+02</wgt>
<wgt id='8003'>0.81163E+02</wgt>
<wgt id='8004'>0.81160E+02</wgt>
<wgt id='8005'>0.81001E+02</wgt>
<wgt id='8006'>0.81243E+02</wgt>
<wgt id='8007'>0.81292E+02</wgt>
<wgt id='8008'>0.81330E+02</wgt>
<wgt id='8009'>0.81495E+02</wgt>
<wgt id='8010'>0.81081E+02</wgt>
<wgt id='8011'>0.81188E+02</wgt>
<wgt id='8012'>0.80903E+02</wgt>
<wgt id='8013'>0.81009E+02</wgt>
<wgt id='8014'>0.81343E+02</wgt>
<wgt id='8015'>0.81104E+02</wgt>
<wgt id='8016'>0.81282E+02</wgt>
<wgt id='8017'>0.81275E+02</wgt>
<wgt id='8018'>0.81448E+02</wgt>
<wgt id='8019'>0.81000E+02</wgt>
<wgt id='8020'>0.81454E+02</wgt>
<wgt id='8021'>0.81007E+02</wgt>
<wgt id='8022'>0.81692E+02</wgt>
<wgt id='8023'>0.80866E+02</wgt>
<wgt id='8024'>0.80602E+02</wgt>
<wgt id='8025'>0.80741E+02</wgt>
<wgt id='8026'>0.81162E+02</wgt>
<wgt id='8027'>0.81302E+02</wgt>
<wgt id='8028'>0.81188E+02</wgt>
<wgt id='8029'>0.82662E+02</wgt>
<wgt id='3000'>0.81104E+02</wgt>
<wgt id='3001'>0.82484E+02</wgt>
<wgt id='3002'>0.80829E+02</wgt>
<wgt id='3003'>0.82605E+02</wgt>
<wgt id='3004'>0.81742E+02</wgt>
<wgt id='3005'>0.82415E+02</wgt>
<wgt id='3006'>0.80808E+02</wgt>
<wgt id='3007'>0.78991E+02</wgt>
<wgt id='3008'>0.78880E+02</wgt>
<wgt id='3009'>0.80146E+02</wgt>
<wgt id='3010'>0.85048E+02</wgt>
<wgt id='3011'>0.82242E+02</wgt>
<wgt id='3012'>0.79210E+02</wgt>
<wgt id='3013'>0.80514E+02</wgt>
<wgt id='3014'>0.80541E+02</wgt>
<wgt id='3015'>0.78610E+02</wgt>
<wgt id='3016'>0.80410E+02</wgt>
<wgt id='3017'>0.81296E+02</wgt>
<wgt id='3018'>0.79785E+02</wgt>
<wgt id='3019'>0.80106E+02</wgt>
<wgt id='3020'>0.80526E+02</wgt>
<wgt id='3021'>0.79273E+02</wgt>
<wgt id='3022'>0.79573E+02</wgt>
<wgt id='3023'>0.79796E+02</wgt>
<wgt id='3024'>0.81484E+02</wgt>
<wgt id='3025'>0.79534E+02</wgt>
<wgt id='3026'>0.80364E+02</wgt>
<wgt id='3027'>0.82809E+02</wgt>
<wgt id='3028'>0.78624E+02</wgt>
<wgt id='3029'>0.80833E+02</wgt>
<wgt id='3030'>0.79914E+02</wgt>
<wgt id='3031'>0.83674E+02</wgt>
<wgt id='3032'>0.78382E+02</wgt>
<wgt id='3033'>0.79601E+02</wgt>
<wgt id='3034'>0.82244E+02</wgt>
<wgt id='3035'>0.83756E+02</wgt>
<wgt id='3036'>0.81310E+02</wgt>
<wgt id='3037'>0.80780E+02</wgt>
<wgt id='3038'>0.81749E+02</wgt>
<wgt id='3039'>0.79975E+02</wgt>
<wgt id='3040'>0.80721E+02</wgt>
<wgt id='3041'>0.81432E+02</wgt>
<wgt id='3042'>0.81512E+02</wgt>
<wgt id='3043'>0.82573E+02</wgt>
<wgt id='3044'>0.82084E+02</wgt>
<wgt id='3045'>0.81401E+02</wgt>
<wgt id='3046'>0.81078E+02</wgt>
<wgt id='3047'>0.81943E+02</wgt>
<wgt id='3048'>0.82900E+02</wgt>
<wgt id='3049'>0.80680E+02</wgt>
<wgt id='3050'>0.83199E+02</wgt>
<wgt id='3051'>0.79774E+02</wgt>
<wgt id='3052'>0.80053E+02</wgt>
<wgt id='3053'>0.82418E+02</wgt>
<wgt id='3054'>0.79240E+02</wgt>
<wgt id='3055'>0.81828E+02</wgt>
<wgt id='3056'>0.80712E+02</wgt>
<wgt id='3057'>0.80018E+02</wgt>
<wgt id='3058'>0.82966E+02</wgt>
<wgt id='3059'>0.79434E+02</wgt>
<wgt id='3060'>0.80286E+02</wgt>
<wgt id='3061'>0.80297E+02</wgt>
<wgt id='3062'>0.82230E+02</wgt>
<wgt id='3063'>0.82071E+02</wgt>
<wgt id='3064'>0.82813E+02</wgt>
<wgt id='3065'>0.79203E+02</wgt>
<wgt id='3066'>0.82811E+02</wgt>
<wgt id='3067'>0.80811E+02</wgt>
<wgt id='3068'>0.79854E+02</wgt>
<wgt id='3069'>0.80351E+02</wgt>
<wgt id='3070'>0.82205E+02</wgt>
<wgt id='3071'>0.80735E+02</wgt>
<wgt id='3072'>0.81683E+02</wgt>
<wgt id='3073'>0.80665E+02</wgt>
<wgt id='3074'>0.79908E+02</wgt>
<wgt id='3075'>0.81398E+02</wgt>
<wgt id='3076'>0.83157E+02</wgt>
<wgt id='3077'>0.82421E+02</wgt>
<wgt id='3078'>0.79380E+02</wgt>
<wgt id='3079'>0.81028E+02</wgt>
<wgt id='3080'>0.84417E+02</wgt>
<wgt id='3081'>0.82376E+02</wgt>
<wgt id='3082'>0.80410E+02</wgt>
<wgt id='3083'>0.81244E+02</wgt>
<wgt id='3084'>0.80030E+02</wgt>
<wgt id='3085'>0.81242E+02</wgt>
<wgt id='3086'>0.83143E+02</wgt>
<wgt id='3087'>0.80112E+02</wgt>
<wgt id='3088'>0.81414E+02</wgt>
<wgt id='3089'>0.83375E+02</wgt>
<wgt id='3090'>0.80578E+02</wgt>
<wgt id='3091'>0.80601E+02</wgt>
<wgt id='3092'>0.81315E+02</wgt>
<wgt id='3093'>0.81128E+02</wgt>
<wgt id='3094'>0.81933E+02</wgt>
<wgt id='3095'>0.78931E+02</wgt>
<wgt id='3096'>0.80536E+02</wgt>
<wgt id='3097'>0.85455E+02</wgt>
<wgt id='3098'>0.81122E+02</wgt>
<wgt id='3099'>0.79779E+02</wgt>
<wgt id='3100'>0.80665E+02</wgt>
<wgt id='3200'>0.79282E+02</wgt>
<wgt id='3201'>0.78639E+02</wgt>
<wgt id='3202'>0.77234E+02</wgt>
<wgt id='3203'>0.79617E+02</wgt>
<wgt id='3204'>0.78825E+02</wgt>
<wgt id='3205'>0.79356E+02</wgt>
<wgt id='3206'>0.80711E+02</wgt>
<wgt id='3207'>0.80184E+02</wgt>
<wgt id='3208'>0.79394E+02</wgt>
<wgt id='3209'>0.79118E+02</wgt>
<wgt id='3210'>0.79465E+02</wgt>
<wgt id='3211'>0.79359E+02</wgt>
<wgt id='3212'>0.79623E+02</wgt>
<wgt id='3213'>0.80107E+02</wgt>
<wgt id='3214'>0.78971E+02</wgt>
<wgt id='3215'>0.79362E+02</wgt>
<wgt id='3216'>0.79785E+02</wgt>
<wgt id='3217'>0.79879E+02</wgt>
<wgt id='3218'>0.80606E+02</wgt>
<wgt id='3219'>0.79261E+02</wgt>
<wgt id='3220'>0.78397E+02</wgt>
<wgt id='3221'>0.78960E+02</wgt>
<wgt id='3222'>0.80034E+02</wgt>
<wgt id='3223'>0.80270E+02</wgt>
<wgt id='3224'>0.79052E+02</wgt>
<wgt id='3225'>0.80218E+02</wgt>
<wgt id='3226'>0.78114E+02</wgt>
<wgt id='3227'>0.78272E+02</wgt>
<wgt id='3228'>0.78927E+02</wgt>
<wgt id='3229'>0.80394E+02</wgt>
<wgt id='3230'>0.79183E+02</wgt>
<wgt id='3231'>0.79452E+02</wgt>
<wgt id='3232'>0.79531E+02</wgt>
<wgt id='3233'>0.79245E+02</wgt>
<wgt id='3234'>0.77799E+02</wgt>
<wgt id='3235'>0.79474E+02</wgt>
<wgt id='3236'>0.79840E+02</wgt>
<wgt id='3237'>0.79706E+02</wgt>
<wgt id='3238'>0.78468E+02</wgt>
<wgt id='3239'>0.78835E+02</wgt>
<wgt id='3240'>0.77807E+02</wgt>
<wgt id='3241'>0.80038E+02</wgt>
<wgt id='3242'>0.79513E+02</wgt>
<wgt id='3243'>0.80247E+02</wgt>
<wgt id='3244'>0.79918E+02</wgt>
<wgt id='3245'>0.79844E+02</wgt>
<wgt id='3246'>0.77553E+02</wgt>
<wgt id='3247'>0.78120E+02</wgt>
<wgt id='3248'>0.78978E+02</wgt>
<wgt id='3249'>0.78136E+02</wgt>
<wgt id='3250'>0.79298E+02</wgt>
<wgt id='3251'>0.78831E+02</wgt>
<wgt id='3252'>0.80247E+02</wgt>
<wgt id='3253'>0.79553E+02</wgt>
<wgt id='3254'>0.79228E+02</wgt>
<wgt id='3255'>0.78008E+02</wgt>
<wgt id='3256'>0.79406E+02</wgt>
<wgt id='3257'>0.79171E+02</wgt>
<wgt id='3258'>0.78205E+02</wgt>
<wgt id='3259'>0.77791E+02</wgt>
<wgt id='3260'>0.79154E+02</wgt>
<wgt id='3261'>0.77979E+02</wgt>
<wgt id='3262'>0.80758E+02</wgt>
<wgt id='3263'>0.79856E+02</wgt>
<wgt id='3264'>0.79571E+02</wgt>
<wgt id='3265'>0.80153E+02</wgt>
<wgt id='3266'>0.79706E+02</wgt>
<wgt id='3267'>0.79291E+02</wgt>
<wgt id='3268'>0.78144E+02</wgt>
<wgt id='3269'>0.78973E+02</wgt>
<wgt id='3270'>0.81211E+02</wgt>
<wgt id='3271'>0.79180E+02</wgt>
<wgt id='3272'>0.79288E+02</wgt>
<wgt id='3273'>0.79291E+02</wgt>
<wgt id='3274'>0.78425E+02</wgt>
<wgt id='3275'>0.80256E+02</wgt>
<wgt id='3276'>0.78423E+02</wgt>
<wgt id='3277'>0.79453E+02</wgt>
<wgt id='3278'>0.80231E+02</wgt>
<wgt id='3279'>0.79558E+02</wgt>
<wgt id='3280'>0.79249E+02</wgt>
<wgt id='3281'>0.79894E+02</wgt>
<wgt id='3282'>0.79469E+02</wgt>
<wgt id='3283'>0.79477E+02</wgt>
<wgt id='3284'>0.78506E+02</wgt>
<wgt id='3285'>0.79596E+02</wgt>
<wgt id='3286'>0.78005E+02</wgt>
<wgt id='3287'>0.81560E+02</wgt>
<wgt id='3288'>0.78331E+02</wgt>
<wgt id='3289'>0.80190E+02</wgt>
<wgt id='3290'>0.77816E+02</wgt>
<wgt id='3291'>0.78840E+02</wgt>
<wgt id='3292'>0.79528E+02</wgt>
<wgt id='3293'>0.79042E+02</wgt>
<wgt id='3294'>0.79654E+02</wgt>
<wgt id='3295'>0.79403E+02</wgt>
<wgt id='3296'>0.79510E+02</wgt>
<wgt id='3297'>0.79636E+02</wgt>
<wgt id='3298'>0.77987E+02</wgt>
<wgt id='3299'>0.79922E+02</wgt>
<wgt id='3300'>0.80062E+02</wgt>
<wgt id='3301'>0.77703E+02</wgt>
<wgt id='3302'>0.80283E+02</wgt>
<wgt id='3400'>0.78229E+02</wgt>
<wgt id='3401'>0.78578E+02</wgt>
<wgt id='3402'>0.76463E+02</wgt>
<wgt id='3403'>0.78842E+02</wgt>
<wgt id='3404'>0.79523E+02</wgt>
<wgt id='3405'>0.78559E+02</wgt>
<wgt id='3406'>0.79716E+02</wgt>
<wgt id='3407'>0.78423E+02</wgt>
<wgt id='3408'>0.78548E+02</wgt>
<wgt id='3409'>0.78339E+02</wgt>
<wgt id='3410'>0.78924E+02</wgt>
<wgt id='3411'>0.79809E+02</wgt>
<wgt id='3412'>0.78923E+02</wgt>
<wgt id='3413'>0.77885E+02</wgt>
<wgt id='3414'>0.77753E+02</wgt>
<wgt id='3415'>0.78208E+02</wgt>
<wgt id='3416'>0.77834E+02</wgt>
<wgt id='3417'>0.78946E+02</wgt>
<wgt id='3418'>0.77490E+02</wgt>
<wgt id='3419'>0.77619E+02</wgt>
<wgt id='3420'>0.77781E+02</wgt>
<wgt id='3421'>0.77466E+02</wgt>
<wgt id='3422'>0.77600E+02</wgt>
<wgt id='3423'>0.79443E+02</wgt>
<wgt id='3424'>0.78592E+02</wgt>
<wgt id='3425'>0.77420E+02</wgt>
<wgt id='3426'>0.77410E+02</wgt>
<wgt id='3427'>0.76794E+02</wgt>
<wgt id='3428'>0.78473E+02</wgt>
<wgt id='3429'>0.77334E+02</wgt>
<wgt id='3430'>0.77557E+02</wgt>
<wgt id='3431'>0.78609E+02</wgt>
<wgt id='3432'>0.79471E+02</wgt>
<wgt id='3433'>0.78200E+02</wgt>
<wgt id='3434'>0.79508E+02</wgt>
<wgt id='3435'>0.79215E+02</wgt>
<wgt id='3436'>0.77961E+02</wgt>
<wgt id='3437'>0.79722E+02</wgt>
<wgt id='3438'>0.77739E+02</wgt>
<wgt id='3439'>0.76190E+02</wgt>
<wgt id='3440'>0.78590E+02</wgt>
<wgt id='3441'>0.78453E+02</wgt>
<wgt id='3442'>0.77806E+02</wgt>
<wgt id='3443'>0.79105E+02</wgt>
<wgt id='3444'>0.77255E+02</wgt>
<wgt id='3445'>0.77639E+02</wgt>
<wgt id='3446'>0.78475E+02</wgt>
<wgt id='3447'>0.77846E+02</wgt>
<wgt id='3448'>0.80049E+02</wgt>
<wgt id='3449'>0.78602E+02</wgt>
<wgt id='3450'>0.77620E+02</wgt>
<wgt id='3451'>0.78942E+02</wgt>
<wgt id='3452'>0.77709E+02</wgt>
<wgt id='3453'>0.76709E+02</wgt>
<wgt id='3454'>0.78484E+02</wgt>
<wgt id='3455'>0.78794E+02</wgt>
<wgt id='3456'>0.78506E+02</wgt>
<wgt id='3457'>0.78283E+02</wgt>
<wgt id='3458'>0.77624E+02</wgt>
<wgt id='3459'>0.78255E+02</wgt>
<wgt id='3460'>0.78085E+02</wgt>
<wgt id='3461'>0.77281E+02</wgt>
<wgt id='3462'>0.78696E+02</wgt>
<wgt id='3463'>0.77202E+02</wgt>
<wgt id='3464'>0.78238E+02</wgt>
<wgt id='3465'>0.79182E+02</wgt>
<wgt id='3466'>0.79055E+02</wgt>
<wgt id='3467'>0.78063E+02</wgt>
<wgt id='3468'>0.77529E+02</wgt>
<wgt id='3469'>0.77049E+02</wgt>
<wgt id='3470'>0.77478E+02</wgt>
<wgt id='3471'>0.77618E+02</wgt>
<wgt id='3472'>0.76277E+02</wgt>
<wgt id='3473'>0.80130E+02</wgt>
<wgt id='3474'>0.77414E+02</wgt>
<wgt id='3475'>0.78928E+02</wgt>
<wgt id='3476'>0.77891E+02</wgt>
<wgt id='3477'>0.77190E+02</wgt>
<wgt id='3478'>0.79476E+02</wgt>
<wgt id='3479'>0.77865E+02</wgt>
<wgt id='3480'>0.79103E+02</wgt>
<wgt id='3481'>0.79212E+02</wgt>
<wgt id='3482'>0.78662E+02</wgt>
<wgt id='3483'>0.78403E+02</wgt>
<wgt id='3484'>0.77248E+02</wgt>
<wgt id='3485'>0.77457E+02</wgt>
<wgt id='3486'>0.76118E+02</wgt>
<wgt id='3487'>0.77128E+02</wgt>
<wgt id='3488'>0.78014E+02</wgt>
<wgt id='3489'>0.77136E+02</wgt>
<wgt id='3490'>0.79071E+02</wgt>
<wgt id='3491'>0.80358E+02</wgt>
<wgt id='3492'>0.77598E+02</wgt>
<wgt id='3493'>0.80115E+02</wgt>
<wgt id='3494'>0.76591E+02</wgt>
<wgt id='3495'>0.79311E+02</wgt>
<wgt id='3496'>0.77441E+02</wgt>
<wgt id='3497'>0.78112E+02</wgt>
<wgt id='3498'>0.79785E+02</wgt>
<wgt id='3499'>0.77707E+02</wgt>
<wgt id='3500'>0.80097E+02</wgt>
</rwgt>
</event>
<event>
     13 322200  8.11039E+01  6.62072E+01 -1.00000E+00  1.30639E-01
      21    -1     0     0   502   503  0.000000000E+00  0.000000000E+00  3.352561591E+02  3.352561591E+02  0.000000000E+00  0.00000E+00  9.000E+00
      21    -1     0     0   503   504  0.000000000E+00  0.000000000E+00 -3.393798302E+02  3.393798302E+02  0.000000000E+00  0.00000E+00  9.000E+00
       6     2     1     2   502     0 -1.597266705E+02 -6.881853186E+01  1.643102182E+02  2.946110641E+02  1.718988997E+02  0.00000E+00  9.000E+00
      -6     2     1     2     0   505  1.624422248E+02  1.349700082E+02 -1.188431638E+02  2.973047214E+02  1.722266537E+02  0.00000E+00  9.000E+00
      21     1     1     2   505   504 -2.715554282E+00 -6.615147638E+01 -4.959072544E+01  8.272020377E+01  1.168007728E-06  0.00000E+00  9.000E+00
      24     2     3     3     0     0 -1.504544711E+02  1.788924776E+00  1.015137244E+02  1.995300995E+02  8.287023723E+01  0.00000E+00  9.000E+00
       5     1     3     3   502     0 -9.272199440E+00 -7.060745663E+01  6.279649375E+01  9.508096467E+01  5.060000000E+00  0.00000E+00 -1.000E+00
     -24     2     4     4     0     0  8.101598245E+01  1.449321281E+02 -1.046246094E+02  2.138946041E+02  8.506280972E+01  0.00000E+00  9.000E+00
      -5     1     4     4     0   505  8.142624236E+01 -9.962119888E+00 -1.421855442E+01  8.341011730E+01  5.060000000E+00  0.00000E+00  1.000E+00
     -15     1     6     6     0     0 -4.878283249E+00 -6.201451891E+00  4.080748815E+01  4.160125564E+01  1.777000000E+00  0.00000E+00  1.000E+00
      16     1     6     6     0     0 -1.455761878E+02  7.990376667E+00  6.070623630E+01  1.579288438E+02  0.000000000E+00  0.00000E+00 -1.000E+00
      13     1     8     8     0     0  9.422014572E+01  1.045880533E+02 -9.651027018E+01  1.706761266E+02  1.057000000E-01  0.00000E+00 -1.000E+00
     -14     1     8     8     0     0 -1.320416327E+01  4.034407479E+01 -8.114339185E+00  4.321847751E+01  0.000000000E+00  0.00000E+00  1.000E+00
#rwgt            1           1   492.67538134502109               10       19945           0
<rwgt>
<wgt id='1001'>0.81104E+02</wgt>
<wgt id='1002'>0.87781E+02</wgt>
<wgt id='1003'>0.73536E+02</wgt>
<wgt id='1004'>0.72086E+02</wgt>
<wgt id='1005'>0.76617E+02</wgt>
<wgt id='1006'>0.66920E+02</wgt>
<wgt id='1007'>0.91505E+02</wgt>
<wgt id='1008'>0.10144E+03</wgt>
<wgt id='1009'>0.80298E+02</wgt>
<wgt id='2000'>0.81104E+02</wgt>
<wgt id='2001'>0.81259E+02</wgt>
<wgt id='2002'>0.80880E+02</wgt>
<wgt id='2003'>0.80962E+02</wgt>
<wgt id='2004'>0.81270E+02</wgt>
<wgt id='2005'>0.81209E+02</wgt>
<wgt id='2006'>0.81316E+02</wgt>
<wgt id='2007'>0.81237E+02</wgt>
<wgt id='2008'>0.81502E+02</wgt>
<wgt id='2009'>0.81009E+02</wgt>
<wgt id='2010'>0.81114E+02</wgt>
<wgt id='2011'>0.80795E+02</wgt>
<wgt id='2012'>0.81269E+02</wgt>
<wgt id='2013'>0.81316E+02</wgt>
<wgt id='2014'>0.81476E+02</wgt>
<wgt id='2015'>0.81318E+02</wgt>
<wgt id='2016'>0.81170E+02</wgt>
<wgt id='2017'>0.81140E+02</wgt>
<wgt id='2018'>0.80814E+02</wgt>
<wgt id='2019'>0.81592E+02</wgt>
<wgt id='2020'>0.80814E+02</wgt>
<wgt id='2021'>0.80988E+02</wgt>
<wgt id='2022'>0.80796E+02</wgt>
<wgt id='2023'>0.80983E+02</wgt>
<wgt id='2024'>0.81104E+02</wgt>
<wgt id='2025'>0.81150E+02</wgt>
<wgt id='2026'>0.80984E+02</wgt>
<wgt id='2027'>0.80769E+02</wgt>
<wgt id='2028'>0.81277E+02</wgt>
<wgt id='2029'>0.80787E+02</wgt>
<wgt id='2030'>0.81042E+02</wgt>
<wgt id='2031'>0.80822E+02</wgt>
<wgt id='2032'>0.81083E+02</wgt>
<wgt id='2033'>0.81011E+02</wgt>
<wgt id='2034'>0.80965E+02</wgt>
<wgt id='2035'>0.81127E+02</wgt>
<wgt id='2036'>0.81278E+02</wgt>
<wgt id='2037'>0.81087E+02</wgt>
<wgt id='2038'>0.81068E+02</wgt>
<wgt id='2039'>0.81095E+02</wgt>
<wgt id='2040'>0.81072E+02</wgt>
<wgt id='2041'>0.81090E+02</wgt>
<wgt id='2042'>0.81142E+02</wgt>
<wgt id='2043'>0.81038E+02</wgt>
<wgt id='2044'>0.81173E+02</wgt>
<wgt id='2045'>0.81125E+02</wgt>
<wgt id='2046'>0.81127E+02</wgt>
<wgt id='2047'>0.81087E+02</wgt>
<wgt id='2048'>0.81071E+02</wgt>
<wgt id='2049'>0.81035E+02</wgt>
<wgt id='2050'>0.81067E+02</wgt>
<wgt id='2051'>0.81095E+02</wgt>
<wgt id='2052'>0.81179E+02</wgt>
<wgt id='2053'>0.81091E+02</wgt>
<wgt id='2054'>0.81099E+02</wgt>
<wgt id='2055'>0.81116E+02</wgt>
<wgt id='2056'>0.81070E+02</wgt>
<wgt id='2057'>0.81134E+02</wgt>
<wgt id='2058'>0.81126E+02</wgt>
<wgt id='2059'>0.81121E+02</wgt>
<wgt id='2060'>0.81110E+02</wgt>
<wgt id='2061'>0.81082E+02</wgt>
<wgt id='2062'>0.81174E+02</wgt>
<wgt id='2063'>0.81125E+02</wgt>
<wgt id='2064'>0.81123E+02</wgt>
<wgt id='2065'>0.81182E+02</wgt>
<wgt id='2066'>0.81097E+02</wgt>
<wgt id='2067'>0.81125E+02</wgt>
<wgt id='2068'>0.81115E+02</wgt>
<wgt id='2069'>0.81111E+02</wgt>
<wgt id='2070'>0.81113E+02</wgt>
<wgt id='2071'>0.81102E+02</wgt>
<wgt id='2072'>0.81109E+02</wgt>
<wgt id='2073'>0.81124E+02</wgt>
<wgt id='2074'>0.81083E+02</wgt>
<wgt id='2075'>0.81091E+02</wgt>
<wgt id='2076'>0.81095E+02</wgt>
<wgt id='2077'>0.81144E+02</wgt>
<wgt id='2078'>0.81117E+02</wgt>
<wgt id='2079'>0.81083E+02</wgt>
<wgt id='2080'>0.81104E+02</wgt>
<wgt id='2081'>0.81093E+02</wgt>
<wgt id='2082'>0.81114E+02</wgt>
<wgt id='2083'>0.81133E+02</wgt>
<wgt id='2084'>0.81112E+02</wgt>
<wgt id='2085'>0.81104E+02</wgt>
<wgt id='2086'>0.81094E+02</wgt>
<wgt id='2087'>0.81115E+02</wgt>
<wgt id='2088'>0.81099E+02</wgt>
<wgt id='2089'>0.81093E+02</wgt>
<wgt id='2090'>0.81121E+02</wgt>
<wgt id='2091'>0.81104E+02</wgt>
<wgt id='2092'>0.81117E+02</wgt>
<wgt id='2093'>0.81090E+02</wgt>
<wgt id='2094'>0.81110E+02</wgt>
<wgt id='2095'>0.81117E+02</wgt>
<wgt id='2096'>0.81095E+02</wgt>
<wgt id='2097'>0.81116E+02</wgt>
<wgt id='2098'>0.81099E+02</wgt>
<wgt id='2099'>0.81117E+02</wgt>
<wgt id='2100'>0.81104E+02</wgt>
<wgt id='2101'>0.79041E+02</wgt>
<wgt id='2102'>0.83151E+02</wgt>
<wgt id='2200'>0.81185E+02</wgt>
<wgt id='2201'>0.71847E+02</wgt>
<wgt id='2202'>0.73591E+02</wgt>
<wgt id='2203'>0.75815E+02</wgt>
<wgt id='2204'>0.77714E+02</wgt>
<wgt id='2205'>0.80323E+02</wgt>
<wgt id='2206'>0.82314E+02</wgt>
<wgt id='2207'>0.84607E+02</wgt>
<wgt id='2208'>0.86521E+02</wgt>
<wgt id='2300'>0.84556E+02</wgt>
<wgt id='2301'>0.84623E+02</wgt>
<wgt id='2302'>0.84555E+02</wgt>
<wgt id='2303'>0.84619E+02</wgt>
<wgt id='2304'>0.84717E+02</wgt>
<wgt id='2305'>0.84763E+02</wgt>
<wgt id='2306'>0.84531E+02</wgt>
<wgt id='2307'>0.84825E+02</wgt>
<wgt id='2308'>0.84511E+02</wgt>
<wgt id='2309'>0.84833E+02</wgt>
<wgt id='2310'>0.84421E+02</wgt>
<wgt id='2311'>0.84387E+02</wgt>
<wgt id='2312'>0.84692E+02</wgt>
<wgt id='2313'>0.84632E+02</wgt>
<wgt id='2314'>0.84717E+02</wgt>
<wgt id='2315'>0.84365E+02</wgt>
<wgt id='2316'>0.84613E+02</wgt>
<wgt id='2317'>0.84700E+02</wgt>
<wgt id='2318'>0.84826E+02</wgt>
<wgt id='2319'>0.84304E+02</wgt>
<wgt id='2320'>0.84228E+02</wgt>
<wgt id='2321'>0.84160E+02</wgt>
<wgt id='2322'>0.84532E+02</wgt>
<wgt id='2323'>0.84294E+02</wgt>
<wgt id='2324'>0.84132E+02</wgt>
<wgt id='2325'>0.84575E+02</wgt>
<wgt id='2326'>0.84840E+02</wgt>
<wgt id='2327'>0.84582E+02</wgt>
<wgt id='2328'>0.84073E+02</wgt>
<wgt id='2329'>0.84361E+02</wgt>
<wgt id='2330'>0.84780E+02</wgt>
<wgt id='2331'>0.84668E+02</wgt>
<wgt id='2332'>0.84738E+02</wgt>
<wgt id='2333'>0.84763E+02</wgt>
<wgt id='2334'>0.84647E+02</wgt>
<wgt id='2335'>0.84689E+02</wgt>
<wgt id='2336'>0.84593E+02</wgt>
<wgt id='2337'>0.84582E+02</wgt>
<wgt id='2338'>0.84568E+02</wgt>
<wgt id='2339'>0.84450E+02</wgt>
<wgt id='2340'>0.84622E+02</wgt>
<wgt id='2341'>0.84626E+02</wgt>
<wgt id='2342'>0.84415E+02</wgt>
<wgt id='2343'>0.84440E+02</wgt>
<wgt id='2344'>0.84571E+02</wgt>
<wgt id='2345'>0.84638E+02</wgt>
<wgt id='2346'>0.84621E+02</wgt>
<wgt id='2347'>0.84522E+02</wgt>
<wgt id='2348'>0.84648E+02</wgt>
<wgt id='2349'>0.84538E+02</wgt>
<wgt id='2350'>0.84573E+02</wgt>
<wgt id='2351'>0.84690E+02</wgt>
<wgt id='2352'>0.84528E+02</wgt>
<wgt id='2353'>0.84525E+02</wgt>
<wgt id='2354'>0.84533E+02</wgt>
<wgt id='2355'>0.84557E+02</wgt>
<wgt id='2356'>0.84569E+02</wgt>
<wgt id='2357'>0.84494E+02</wgt>
<wgt id='2358'>0.84531E+02</wgt>
<wgt id='2359'>0.84545E+02</wgt>
<wgt id='2360'>0.84570E+02</wgt>
<wgt id='2361'>0.84567E+02</wgt>
<wgt id='2362'>0.84551E+02</wgt>
<wgt id='2363'>0.84581E+02</wgt>
<wgt id='2364'>0.84547E+02</wgt>
<wgt id='2365'>0.84575E+02</wgt>
<wgt id='2366'>0.84566E+02</wgt>
<wgt id='2367'>0.84537E+02</wgt>
<wgt id='2368'>0.84545E+02</wgt>
<wgt id='2369'>0.84511E+02</wgt>
<wgt id='2370'>0.84536E+02</wgt>
<wgt id='2371'>0.84565E+02</wgt>
<wgt id='2372'>0.84580E+02</wgt>
<wgt id='2373'>0.84560E+02</wgt>
<wgt id='2374'>0.84593E+02</wgt>
<wgt id='2375'>0.84581E+02</wgt>
<wgt id='2376'>0.84560E+02</wgt>
<wgt id='2377'>0.84548E+02</wgt>
<wgt id='2378'>0.84582E+02</wgt>
<wgt id='2379'>0.84528E+02</wgt>
<wgt id='2380'>0.84535E+02</wgt>
<wgt id='2381'>0.84539E+02</wgt>
<wgt id='2382'>0.84537E+02</wgt>
<wgt id='2383'>0.84564E+02</wgt>
<wgt id='2384'>0.84548E+02</wgt>
<wgt id='2385'>0.84579E+02</wgt>
<wgt id='2386'>0.84575E+02</wgt>
<wgt id='2387'>0.84552E+02</wgt>
<wgt id='2388'>0.84540E+02</wgt>
<wgt id='2389'>0.84561E+02</wgt>
<wgt id='2390'>0.84564E+02</wgt>
<wgt id='2391'>0.84546E+02</wgt>
<wgt id='2392'>0.84540E+02</wgt>
<wgt id='2393'>0.84562E+02</wgt>
<wgt id='2394'>0.84571E+02</wgt>
<wgt id='2395'>0.84558E+02</wgt>
<wgt id='2396'>0.84532E+02</wgt>
<wgt id='2397'>0.84539E+02</wgt>
<wgt id='2398'>0.84533E+02</wgt>
<wgt id='2399'>0.84566E+02</wgt>
<wgt id='2400'>0.84565E+02</wgt>
<wgt id='2401'>0.82478E+02</wgt>
<wgt id='2402'>0.86661E+02</wgt>
<wgt id='2500'>0.81042E+02</wgt>
<wgt id='2501'>0.85780E+02</wgt>
<wgt id='2600'>0.77992E+02</wgt>
<wgt id='2601'>0.78032E+02</wgt>
<wgt id='2602'>0.77883E+02</wgt>
<wgt id='2603'>0.77948E+02</wgt>
<wgt id='2604'>0.78020E+02</wgt>
<wgt id='2605'>0.77864E+02</wgt>
<wgt id='2606'>0.77782E+02</wgt>
<wgt id='2607'>0.78119E+02</wgt>
<wgt id='2608'>0.77890E+02</wgt>
<wgt id='2609'>0.77904E+02</wgt>
<wgt id='2610'>0.77946E+02</wgt>
<wgt id='2611'>0.77896E+02</wgt>
<wgt id='2612'>0.78385E+02</wgt>
<wgt id='2613'>0.77946E+02</wgt>
<wgt id='2614'>0.77974E+02</wgt>
<wgt id='2615'>0.77839E+02</wgt>
<wgt id='2616'>0.77946E+02</wgt>
<wgt id='2617'>0.77847E+02</wgt>
<wgt id='2618'>0.77750E+02</wgt>
<wgt id='2619'>0.78043E+02</wgt>
<wgt id='2620'>0.78036E+02</wgt>
<wgt id='2621'>0.77945E+02</wgt>
<wgt id='2622'>0.78031E+02</wgt>
<wgt id='2623'>0.77986E+02</wgt>
<wgt id='2624'>0.78011E+02</wgt>
<wgt id='2625'>0.77921E+02</wgt>
<wgt id='2626'>0.77980E+02</wgt>
<wgt id='2627'>0.77942E+02</wgt>
<wgt id='2628'>0.78012E+02</wgt>
<wgt id='2629'>0.77989E+02</wgt>
<wgt id='2630'>0.77965E+02</wgt>
<wgt id='2631'>0.78021E+02</wgt>
<wgt id='2632'>0.77989E+02</wgt>
<wgt id='2633'>0.78005E+02</wgt>
<wgt id='2634'>0.78025E+02</wgt>
<wgt id='2635'>0.77981E+02</wgt>
<wgt id='2636'>0.77988E+02</wgt>
<wgt id='2637'>0.77981E+02</wgt>
<wgt id='2638'>0.77983E+02</wgt>
<wgt id='2639'>0.77989E+02</wgt>
<wgt id='2640'>0.77998E+02</wgt>
<wgt id='2641'>0.77983E+02</wgt>
<wgt id='2642'>0.77985E+02</wgt>
<wgt id='2643'>0.77999E+02</wgt>
<wgt id='2644'>0.77991E+02</wgt>
<wgt id='2645'>0.77986E+02</wgt>
<wgt id='2646'>0.77969E+02</wgt>
<wgt id='2647'>0.77998E+02</wgt>
<wgt id='2648'>0.77997E+02</wgt>
<wgt id='2649'>0.77998E+02</wgt>
<wgt id='2650'>0.77992E+02</wgt>
<wgt id='2651'>0.76688E+02</wgt>
<wgt id='2652'>0.79216E+02</wgt>
<wgt id='2700'>0.75422E+02</wgt>
<wgt id='2701'>0.76688E+02</wgt>
<wgt id='2702'>0.77381E+02</wgt>
<wgt id='2703'>0.78485E+02</wgt>
<wgt id='2704'>0.79216E+02</wgt>
<wgt id='2705'>0.80330E+02</wgt>
<wgt id='2800'>0.79069E+02</wgt>
<wgt id='4000'>0.79422E+02</wgt>
<wgt id='4001'>0.79823E+02</wgt>
<wgt id='4002'>0.79315E+02</wgt>
<wgt id='4003'>0.79994E+02</wgt>
<wgt id='4004'>0.78771E+02</wgt>
<wgt id='4005'>0.79016E+02</wgt>
<wgt id='4006'>0.79794E+02</wgt>
<wgt id='4007'>0.80512E+02</wgt>
<wgt id='4008'>0.78353E+02</wgt>
<wgt id='4009'>0.80097E+02</wgt>
<wgt id='4010'>0.78873E+02</wgt>
<wgt id='4011'>0.79672E+02</wgt>
<wgt id='4012'>0.79179E+02</wgt>
<wgt id='4013'>0.80122E+02</wgt>
<wgt id='4014'>0.78805E+02</wgt>
<wgt id='4015'>0.79080E+02</wgt>
<wgt id='4016'>0.79623E+02</wgt>
<wgt id='4017'>0.79314E+02</wgt>
<wgt id='4018'>0.79580E+02</wgt>
<wgt id='4019'>0.80071E+02</wgt>
<wgt id='4020'>0.78440E+02</wgt>
<wgt id='4021'>0.79483E+02</wgt>
<wgt id='4022'>0.79289E+02</wgt>
<wgt id='4023'>0.79190E+02</wgt>
<wgt id='4024'>0.79648E+02</wgt>
<wgt id='4025'>0.79701E+02</wgt>
<wgt id='4026'>0.78719E+02</wgt>
<wgt id='4027'>0.79236E+02</wgt>
<wgt id='4028'>0.79652E+02</wgt>
<wgt id='4029'>0.78449E+02</wgt>
<wgt id='4030'>0.79670E+02</wgt>
<wgt id='4031'>0.79273E+02</wgt>
<wgt id='4032'>0.79219E+02</wgt>
<wgt id='4033'>0.79328E+02</wgt>
<wgt id='4034'>0.79284E+02</wgt>
<wgt id='4035'>0.80591E+02</wgt>
<wgt id='4036'>0.78543E+02</wgt>
<wgt id='4037'>0.80634E+02</wgt>
<wgt id='4038'>0.78419E+02</wgt>
<wgt id='4039'>0.80731E+02</wgt>
<wgt id='4040'>0.78072E+02</wgt>
<wgt id='4041'>0.79240E+02</wgt>
<wgt id='4042'>0.79493E+02</wgt>
<wgt id='4043'>0.78239E+02</wgt>
<wgt id='4044'>0.79923E+02</wgt>
<wgt id='4045'>0.81315E+02</wgt>
<wgt id='4046'>0.78551E+02</wgt>
<wgt id='4047'>0.78168E+02</wgt>
<wgt id='4048'>0.79985E+02</wgt>
<wgt id='4049'>0.79309E+02</wgt>
<wgt id='4050'>0.79531E+02</wgt>
<wgt id='4051'>0.80627E+02</wgt>
<wgt id='4052'>0.78290E+02</wgt>
<wgt id='4053'>0.80413E+02</wgt>
<wgt id='4054'>0.78130E+02</wgt>
<wgt id='4055'>0.79886E+02</wgt>
<wgt id='4056'>0.78931E+02</wgt>
<wgt id='4057'>0.78590E+02</wgt>
<wgt id='4058'>0.79961E+02</wgt>
<wgt id='4100'>0.80090E+02</wgt>
<wgt id='4101'>0.79783E+02</wgt>
<wgt id='4102'>0.79016E+02</wgt>
<wgt id='4103'>0.78578E+02</wgt>
<wgt id='4200'>0.75816E+02</wgt>
<wgt id='4201'>0.75982E+02</wgt>
<wgt id='4202'>0.75930E+02</wgt>
<wgt id='4203'>0.75109E+02</wgt>
<wgt id='4204'>0.76382E+02</wgt>
<wgt id='4205'>0.75746E+02</wgt>
<wgt id='4206'>0.76025E+02</wgt>
<wgt id='4207'>0.75609E+02</wgt>
<wgt id='4208'>0.76053E+02</wgt>
<wgt id='4209'>0.76054E+02</wgt>
<wgt id='4210'>0.75794E+02</wgt>
<wgt id='4211'>0.76930E+02</wgt>
<wgt id='4212'>0.74943E+02</wgt>
<wgt id='4213'>0.75996E+02</wgt>
<wgt id='4214'>0.75551E+02</wgt>
<wgt id='4215'>0.75968E+02</wgt>
<wgt id='4216'>0.75332E+02</wgt>
<wgt id='4217'>0.75390E+02</wgt>
<wgt id='4218'>0.76132E+02</wgt>
<wgt id='4219'>0.74602E+02</wgt>
<wgt id='4220'>0.76949E+02</wgt>
<wgt id='4221'>0.75170E+02</wgt>
<wgt id='4222'>0.76542E+02</wgt>
<wgt id='4223'>0.76489E+02</wgt>
<wgt id='4224'>0.74996E+02</wgt>
<wgt id='4225'>0.74244E+02</wgt>
<wgt id='4226'>0.77285E+02</wgt>
<wgt id='4227'>0.76419E+02</wgt>
<wgt id='4228'>0.75315E+02</wgt>
<wgt id='4229'>0.75193E+02</wgt>
<wgt id='4230'>0.76240E+02</wgt>
<wgt id='4231'>0.75839E+02</wgt>
<wgt id='4232'>0.75728E+02</wgt>
<wgt id='4233'>0.76150E+02</wgt>
<wgt id='4234'>0.75307E+02</wgt>
<wgt id='4235'>0.76212E+02</wgt>
<wgt id='4236'>0.75517E+02</wgt>
<wgt id='4237'>0.75786E+02</wgt>
<wgt id='4238'>0.75649E+02</wgt>
<wgt id='4239'>0.76663E+02</wgt>
<wgt id='4240'>0.74248E+02</wgt>
<wgt id='4241'>0.75381E+02</wgt>
<wgt id='4242'>0.76295E+02</wgt>
<wgt id='4243'>0.75761E+02</wgt>
<wgt id='4244'>0.76114E+02</wgt>
<wgt id='4245'>0.74926E+02</wgt>
<wgt id='4246'>0.76689E+02</wgt>
<wgt id='4247'>0.75522E+02</wgt>
<wgt id='4248'>0.75948E+02</wgt>
<wgt id='4249'>0.77058E+02</wgt>
<wgt id='4250'>0.74384E+02</wgt>
<wgt id='4251'>0.74958E+02</wgt>
<wgt id='4252'>0.76280E+02</wgt>
<wgt id='4253'>0.75457E+02</wgt>
<wgt id='4254'>0.76064E+02</wgt>
<wgt id='4255'>0.76019E+02</wgt>
<wgt id='4256'>0.75612E+02</wgt>
<wgt id='4257'>0.74366E+02</wgt>
<wgt id='4258'>0.76231E+02</wgt>
<wgt id='4300'>0.78611E+02</wgt>
<wgt id='4301'>0.77358E+02</wgt>
<wgt id='5000'>0.78781E+02</wgt>
<wgt id='5001'>0.78825E+02</wgt>
<wgt id='5002'>0.78723E+02</wgt>
<wgt id='5003'>0.78799E+02</wgt>
<wgt id='5004'>0.78763E+02</wgt>
<wgt id='5005'>0.78794E+02</wgt>
<wgt id='5006'>0.78759E+02</wgt>
<wgt id='5007'>0.78845E+02</wgt>
<wgt id='5008'>0.78728E+02</wgt>
<wgt id='5009'>0.78905E+02</wgt>
<wgt id='5010'>0.78652E+02</wgt>
<wgt id='5011'>0.78960E+02</wgt>
<wgt id='5012'>0.78607E+02</wgt>
<wgt id='5013'>0.78907E+02</wgt>
<wgt id='5014'>0.78691E+02</wgt>
<wgt id='5015'>0.78370E+02</wgt>
<wgt id='5016'>0.78370E+02</wgt>
<wgt id='5017'>0.79233E+02</wgt>
<wgt id='5018'>0.78475E+02</wgt>
<wgt id='5019'>0.79092E+02</wgt>
<wgt id='5020'>0.78354E+02</wgt>
<wgt id='5021'>0.78867E+02</wgt>
<wgt id='5022'>0.78646E+02</wgt>
<wgt id='5023'>0.78691E+02</wgt>
<wgt id='5024'>0.78993E+02</wgt>
<wgt id='5025'>0.78483E+02</wgt>
<wgt id='5026'>0.79115E+02</wgt>
<wgt id='5027'>0.78821E+02</wgt>
<wgt id='5028'>0.78673E+02</wgt>
<wgt id='5029'>0.79481E+02</wgt>
<wgt id='5030'>0.78384E+02</wgt>
<wgt id='5031'>0.78428E+02</wgt>
<wgt id='5032'>0.79850E+02</wgt>
<wgt id='5033'>0.78777E+02</wgt>
<wgt id='5034'>0.78784E+02</wgt>
<wgt id='5035'>0.78785E+02</wgt>
<wgt id='5036'>0.78777E+02</wgt>
<wgt id='5037'>0.78657E+02</wgt>
<wgt id='5038'>0.78851E+02</wgt>
<wgt id='5039'>0.78998E+02</wgt>
<wgt id='5040'>0.78244E+02</wgt>
<wgt id='5041'>0.79021E+02</wgt>
<wgt id='5042'>0.78536E+02</wgt>
<wgt id='5043'>0.78911E+02</wgt>
<wgt id='5044'>0.78707E+02</wgt>
<wgt id='5045'>0.78565E+02</wgt>
<wgt id='5046'>0.79177E+02</wgt>
<wgt id='5047'>0.78819E+02</wgt>
<wgt id='5048'>0.78612E+02</wgt>
<wgt id='5049'>0.78760E+02</wgt>
<wgt id='5050'>0.78834E+02</wgt>
<wgt id='5051'>0.78900E+02</wgt>
<wgt id='5052'>0.78674E+02</wgt>
<wgt id='5053'>0.78680E+02</wgt>
<wgt id='5054'>0.78913E+02</wgt>
<wgt id='5055'>0.78827E+02</wgt>
<wgt id='5056'>0.78810E+02</wgt>
<wgt id='5057'>0.78524E+02</wgt>
<wgt id='5058'>0.78960E+02</wgt>
<wgt id='5059'>0.78772E+02</wgt>
<wgt id='5060'>0.78796E+02</wgt>
<wgt id='5061'>0.79075E+02</wgt>
<wgt id='5062'>0.78782E+02</wgt>
<wgt id='5063'>0.79102E+02</wgt>
<wgt id='5064'>0.78699E+02</wgt>
<wgt id='5100'>0.78781E+02</wgt>
<wgt id='5101'>0.78803E+02</wgt>
<wgt id='6000'>0.79191E+02</wgt>
<wgt id='6001'>0.79420E+02</wgt>
<wgt id='6002'>0.79282E+02</wgt>
<wgt id='6003'>0.79180E+02</wgt>
<wgt id='6004'>0.79168E+02</wgt>
<wgt id='6005'>0.79098E+02</wgt>
<wgt id='6006'>0.79522E+02</wgt>
<wgt id='6007'>0.79071E+02</wgt>
<wgt id='6008'>0.78534E+02</wgt>
<wgt id='6009'>0.79555E+02</wgt>
<wgt id='6010'>0.78010E+02</wgt>
<wgt id='6011'>0.79163E+02</wgt>
<wgt id='6012'>0.79464E+02</wgt>
<wgt id='6013'>0.79009E+02</wgt>
<wgt id='6014'>0.79156E+02</wgt>
<wgt id='6015'>0.78651E+02</wgt>
<wgt id='6016'>0.79259E+02</wgt>
<wgt id='6017'>0.79241E+02</wgt>
<wgt id='6018'>0.79080E+02</wgt>
<wgt id='6019'>0.79268E+02</wgt>
<wgt id='6020'>0.79381E+02</wgt>
<wgt id='6021'>0.79317E+02</wgt>
<wgt id='6022'>0.79182E+02</wgt>
<wgt id='6023'>0.79240E+02</wgt>
<wgt id='6024'>0.79270E+02</wgt>
<wgt id='6025'>0.79439E+02</wgt>
<wgt id='6026'>0.79260E+02</wgt>
<wgt id='6027'>0.79228E+02</wgt>
<wgt id='6028'>0.79053E+02</wgt>
<wgt id='6029'>0.79002E+02</wgt>
<wgt id='6030'>0.80079E+02</wgt>
<wgt id='6031'>0.79030E+02</wgt>
<wgt id='6032'>0.79226E+02</wgt>
<wgt id='6033'>0.79075E+02</wgt>
<wgt id='6034'>0.79403E+02</wgt>
<wgt id='6035'>0.79238E+02</wgt>
<wgt id='6036'>0.79613E+02</wgt>
<wgt id='6037'>0.79202E+02</wgt>
<wgt id='6038'>0.79255E+02</wgt>
<wgt id='6039'>0.79330E+02</wgt>
<wgt id='6040'>0.79173E+02</wgt>
<wgt id='6041'>0.77707E+02</wgt>
<wgt id='6042'>0.79371E+02</wgt>
<wgt id='7000'>0.78553E+02</wgt>
<wgt id='7001'>0.77563E+02</wgt>
<wgt id='7002'>0.77741E+02</wgt>
<wgt id='7003'>0.77627E+02</wgt>
<wgt id='7004'>0.77678E+02</wgt>
<wgt id='7005'>0.77758E+02</wgt>
<wgt id='7006'>0.77547E+02</wgt>
<wgt id='7007'>0.78171E+02</wgt>
<wgt id='7008'>0.77149E+02</wgt>
<wgt id='7009'>0.77321E+02</wgt>
<wgt id='7010'>0.77996E+02</wgt>
<wgt id='7011'>0.77924E+02</wgt>
<wgt id='7012'>0.77384E+02</wgt>
<wgt id='7013'>0.77524E+02</wgt>
<wgt id='7014'>0.77773E+02</wgt>
<wgt id='7015'>0.77532E+02</wgt>
<wgt id='7016'>0.77536E+02</wgt>
<wgt id='7017'>0.77695E+02</wgt>
<wgt id='7018'>0.77614E+02</wgt>
<wgt id='7019'>0.77477E+02</wgt>
<wgt id='7020'>0.77838E+02</wgt>
<wgt id='7021'>0.77673E+02</wgt>
<wgt id='7022'>0.77617E+02</wgt>
<wgt id='7023'>0.77387E+02</wgt>
<wgt id='7024'>0.77931E+02</wgt>
<wgt id='7025'>0.76762E+02</wgt>
<wgt id='7026'>0.78473E+02</wgt>
<wgt id='7027'>0.77301E+02</wgt>
<wgt id='7028'>0.78055E+02</wgt>
<wgt id='8000'>0.78846E+02</wgt>
<wgt id='8001'>0.78838E+02</wgt>
<wgt id='8002'>0.78872E+02</wgt>
<wgt id='8003'>0.78848E+02</wgt>
<wgt id='8004'>0.78844E+02</wgt>
<wgt id='8005'>0.78693E+02</wgt>
<wgt id='8006'>0.78928E+02</wgt>
<wgt id='8007'>0.79006E+02</wgt>
<wgt id='8008'>0.79030E+02</wgt>
<wgt id='8009'>0.79190E+02</wgt>
<wgt id='8010'>0.78758E+02</wgt>
<wgt id='8011'>0.78860E+02</wgt>
<wgt id='8012'>0.78542E+02</wgt>
<wgt id='8013'>0.78690E+02</wgt>
<wgt id='8014'>0.79038E+02</wgt>
<wgt id='8015'>0.78802E+02</wgt>
<wgt id='8016'>0.78918E+02</wgt>
<wgt id='8017'>0.78895E+02</wgt>
<wgt id='8018'>0.79030E+02</wgt>
<wgt id='8019'>0.78939E+02</wgt>
<wgt id='8020'>0.78747E+02</wgt>
<wgt id='8021'>0.78795E+02</wgt>
<wgt id='8022'>0.78656E+02</wgt>
<wgt id='8023'>0.78795E+02</wgt>
<wgt id='8024'>0.78662E+02</wgt>
<wgt id='8025'>0.78875E+02</wgt>
<wgt id='8026'>0.78973E+02</wgt>
<wgt id='8027'>0.78875E+02</wgt>
<wgt id='8028'>0.78915E+02</wgt>
<wgt id='8029'>0.78552E+02</wgt>
<wgt id='3000'>0.81104E+02</wgt>
<wgt id='3001'>0.81186E+02</wgt>
<wgt id='3002'>0.80434E+02</wgt>
<wgt id='3003'>0.84205E+02</wgt>
<wgt id='3004'>0.81803E+02</wgt>
<wgt id='3005'>0.80231E+02</wgt>
<wgt id='3006'>0.84444E+02</wgt>
<wgt id='3007'>0.80713E+02</wgt>
<wgt id='3008'>0.79919E+02</wgt>
<wgt id='3009'>0.82261E+02</wgt>
<wgt id='3010'>0.82771E+02</wgt>
<wgt id='3011'>0.83418E+02</wgt>
<wgt id='3012'>0.81848E+02</wgt>
<wgt id='3013'>0.80072E+02</wgt>
<wgt id='3014'>0.80289E+02</wgt>
<wgt id='3015'>0.81048E+02</wgt>
<wgt id='3016'>0.82271E+02</wgt>
<wgt id='3017'>0.82559E+02</wgt>
<wgt id='3018'>0.81203E+02</wgt>
<wgt id='3019'>0.78858E+02</wgt>
<wgt id='3020'>0.79924E+02</wgt>
<wgt id='3021'>0.79453E+02</wgt>
<wgt id='3022'>0.78678E+02</wgt>
<wgt id='3023'>0.79171E+02</wgt>
<wgt id='3024'>0.79351E+02</wgt>
<wgt id='3025'>0.79485E+02</wgt>
<wgt id='3026'>0.80449E+02</wgt>
<wgt id='3027'>0.79280E+02</wgt>
<wgt id='3028'>0.82452E+02</wgt>
<wgt id='3029'>0.82231E+02</wgt>
<wgt id='3030'>0.83111E+02</wgt>
<wgt id='3031'>0.82300E+02</wgt>
<wgt id='3032'>0.82926E+02</wgt>
<wgt id='3033'>0.80040E+02</wgt>
<wgt id='3034'>0.80935E+02</wgt>
<wgt id='3035'>0.82282E+02</wgt>
<wgt id='3036'>0.81141E+02</wgt>
<wgt id='3037'>0.81676E+02</wgt>
<wgt id='3038'>0.80908E+02</wgt>
<wgt id='3039'>0.81705E+02</wgt>
<wgt id='3040'>0.80730E+02</wgt>
<wgt id='3041'>0.80980E+02</wgt>
<wgt id='3042'>0.80781E+02</wgt>
<wgt id='3043'>0.80791E+02</wgt>
<wgt id='3044'>0.80637E+02</wgt>
<wgt id='3045'>0.80896E+02</wgt>
<wgt id='3046'>0.81660E+02</wgt>
<wgt id='3047'>0.80758E+02</wgt>
<wgt id='3048'>0.79095E+02</wgt>
<wgt id='3049'>0.82083E+02</wgt>
<wgt id='3050'>0.82928E+02</wgt>
<wgt id='3051'>0.81610E+02</wgt>
<wgt id='3052'>0.79813E+02</wgt>
<wgt id='3053'>0.80399E+02</wgt>
<wgt id='3054'>0.82009E+02</wgt>
<wgt id='3055'>0.79058E+02</wgt>
<wgt id='3056'>0.80487E+02</wgt>
<wgt id='3057'>0.80587E+02</wgt>
<wgt id='3058'>0.78974E+02</wgt>
<wgt id='3059'>0.82190E+02</wgt>
<wgt id='3060'>0.81599E+02</wgt>
<wgt id='3061'>0.81392E+02</wgt>
<wgt id='3062'>0.80845E+02</wgt>
<wgt id='3063'>0.78515E+02</wgt>
<wgt id='3064'>0.80434E+02</wgt>
<wgt id='3065'>0.80282E+02</wgt>
<wgt id='3066'>0.81272E+02</wgt>
<wgt id='3067'>0.79507E+02</wgt>
<wgt id='3068'>0.81739E+02</wgt>
<wgt id='3069'>0.80509E+02</wgt>
<wgt id='3070'>0.79714E+02</wgt>
<wgt id='3071'>0.82323E+02</wgt>
<wgt id='3072'>0.81013E+02</wgt>
<wgt id='3073'>0.81873E+02</wgt>
<wgt id='3074'>0.82100E+02</wgt>
<wgt id='3075'>0.82521E+02</wgt>
<wgt id='3076'>0.82591E+02</wgt>
<wgt id='3077'>0.79737E+02</wgt>
<wgt id='3078'>0.82460E+02</wgt>
<wgt id='3079'>0.80641E+02</wgt>
<wgt id='3080'>0.81122E+02</wgt>
<wgt id='3081'>0.79161E+02</wgt>
<wgt id='3082'>0.82271E+02</wgt>
<wgt id='3083'>0.81123E+02</wgt>
<wgt id='3084'>0.80868E+02</wgt>
<wgt id='3085'>0.84990E+02</wgt>
<wgt id='3086'>0.79729E+02</wgt>
<wgt id='3087'>0.82117E+02</wgt>
<wgt id='3088'>0.82750E+02</wgt>
<wgt id='3089'>0.83364E+02</wgt>
<wgt id='3090'>0.81076E+02</wgt>
<wgt id='3091'>0.80105E+02</wgt>
<wgt id='3092'>0.82138E+02</wgt>
<wgt id='3093'>0.81402E+02</wgt>
<wgt id='3094'>0.80890E+02</wgt>
<wgt id='3095'>0.81300E+02</wgt>
<wgt id='3096'>0.80194E+02</wgt>
<wgt id='3097'>0.79842E+02</wgt>
<wgt id='3098'>0.81744E+02</wgt>
<wgt id='3099'>0.79908E+02</wgt>
<wgt id='3100'>0.80210E+02</wgt>
<wgt id='3200'>0.78007E+02</wgt>
<wgt id='3201'>0.78575E+02</wgt>
<wgt id='3202'>0.77049E+02</wgt>
<wgt id='3203'>0.77913E+02</wgt>
<wgt id='3204'>0.77413E+02</wgt>
<wgt id='3205'>0.78855E+02</wgt>
<wgt id='3206'>0.78352E+02</wgt>
<wgt id='3207'>0.78715E+02</wgt>
<wgt id='3208'>0.78464E+02</wgt>
<wgt id='3209'>0.77818E+02</wgt>
<wgt id='3210'>0.77871E+02</wgt>
<wgt id='3211'>0.78672E+02</wgt>
<wgt id='3212'>0.76790E+02</wgt>
<wgt id='3213'>0.77785E+02</wgt>
<wgt id='3214'>0.77463E+02</wgt>
<wgt id='3215'>0.78005E+02</wgt>
<wgt id='3216'>0.78828E+02</wgt>
<wgt id='3217'>0.78347E+02</wgt>
<wgt id='3218'>0.77966E+02</wgt>
<wgt id='3219'>0.77809E+02</wgt>
<wgt id='3220'>0.77582E+02</wgt>
<wgt id='3221'>0.78848E+02</wgt>
<wgt id='3222'>0.79230E+02</wgt>
<wgt id='3223'>0.77501E+02</wgt>
<wgt id='3224'>0.77833E+02</wgt>
<wgt id='3225'>0.78538E+02</wgt>
<wgt id='3226'>0.78388E+02</wgt>
<wgt id='3227'>0.77483E+02</wgt>
<wgt id='3228'>0.77575E+02</wgt>
<wgt id='3229'>0.78308E+02</wgt>
<wgt id='3230'>0.78540E+02</wgt>
<wgt id='3231'>0.78316E+02</wgt>
<wgt id='3232'>0.78439E+02</wgt>
<wgt id='3233'>0.78681E+02</wgt>
<wgt id='3234'>0.78061E+02</wgt>
<wgt id='3235'>0.77214E+02</wgt>
<wgt id='3236'>0.77049E+02</wgt>
<wgt id='3237'>0.77570E+02</wgt>
<wgt id='3238'>0.78069E+02</wgt>
<wgt id='3239'>0.77533E+02</wgt>
<wgt id='3240'>0.77865E+02</wgt>
<wgt id='3241'>0.78686E+02</wgt>
<wgt id='3242'>0.77345E+02</wgt>
<wgt id='3243'>0.76946E+02</wgt>
<wgt id='3244'>0.77754E+02</wgt>
<wgt id='3245'>0.78367E+02</wgt>
<wgt id='3246'>0.77586E+02</wgt>
<wgt id='3247'>0.78110E+02</wgt>
<wgt id='3248'>0.77807E+02</wgt>
<wgt id='3249'>0.77744E+02</wgt>
<wgt id='3250'>0.78366E+02</wgt>
<wgt id='3251'>0.78086E+02</wgt>
<wgt id='3252'>0.78160E+02</wgt>
<wgt id='3253'>0.77851E+02</wgt>
<wgt id='3254'>0.77726E+02</wgt>
<wgt id='3255'>0.77955E+02</wgt>
<wgt id='3256'>0.77262E+02</wgt>
<wgt id='3257'>0.77770E+02</wgt>
<wgt id='3258'>0.78475E+02</wgt>
<wgt id='3259'>0.78479E+02</wgt>
<wgt id='3260'>0.78322E+02</wgt>
<wgt id='3261'>0.78801E+02</wgt>
<wgt id='3262'>0.77571E+02</wgt>
<wgt id='3263'>0.78644E+02</wgt>
<wgt id='3264'>0.78284E+02</wgt>
<wgt id='3265'>0.78142E+02</wgt>
<wgt id='3266'>0.77570E+02</wgt>
<wgt id='3267'>0.77706E+02</wgt>
<wgt id='3268'>0.78841E+02</wgt>
<wgt id='3269'>0.78163E+02</wgt>
<wgt id='3270'>0.77820E+02</wgt>
<wgt id='3271'>0.78041E+02</wgt>
<wgt id='3272'>0.78504E+02</wgt>
<wgt id='3273'>0.77906E+02</wgt>
<wgt id='3274'>0.78517E+02</wgt>
<wgt id='3275'>0.78238E+02</wgt>
<wgt id='3276'>0.77542E+02</wgt>
<wgt id='3277'>0.77106E+02</wgt>
<wgt id='3278'>0.77780E+02</wgt>
<wgt id='3279'>0.78852E+02</wgt>
<wgt id='3280'>0.77879E+02</wgt>
<wgt id='3281'>0.78264E+02</wgt>
<wgt id='3282'>0.78401E+02</wgt>
<wgt id='3283'>0.78364E+02</wgt>
<wgt id='3284'>0.78167E+02</wgt>
<wgt id='3285'>0.77232E+02</wgt>
<wgt id='3286'>0.77947E+02</wgt>
<wgt id='3287'>0.77497E+02</wgt>
<wgt id='3288'>0.78366E+02</wgt>
<wgt id='3289'>0.79109E+02</wgt>
<wgt id='3290'>0.79500E+02</wgt>
<wgt id='3291'>0.76564E+02</wgt>
<wgt id='3292'>0.76759E+02</wgt>
<wgt id='3293'>0.77773E+02</wgt>
<wgt id='3294'>0.76359E+02</wgt>
<wgt id='3295'>0.77424E+02</wgt>
<wgt id='3296'>0.79350E+02</wgt>
<wgt id='3297'>0.77598E+02</wgt>
<wgt id='3298'>0.78131E+02</wgt>
<wgt id='3299'>0.77409E+02</wgt>
<wgt id='3300'>0.78585E+02</wgt>
<wgt id='3301'>0.76688E+02</wgt>
<wgt id='3302'>0.79216E+02</wgt>
<wgt id='3400'>0.78473E+02</wgt>
<wgt id='3401'>0.78558E+02</wgt>
<wgt id='3402'>0.78175E+02</wgt>
<wgt id='3403'>0.79301E+02</wgt>
<wgt id='3404'>0.79601E+02</wgt>
<wgt id='3405'>0.79486E+02</wgt>
<wgt id='3406'>0.78101E+02</wgt>
<wgt id='3407'>0.77656E+02</wgt>
<wgt id='3408'>0.79998E+02</wgt>
<wgt id='3409'>0.79642E+02</wgt>
<wgt id='3410'>0.78696E+02</wgt>
<wgt id='3411'>0.78695E+02</wgt>
<wgt id='3412'>0.79001E+02</wgt>
<wgt id='3413'>0.78297E+02</wgt>
<wgt id='3414'>0.78586E+02</wgt>
<wgt id='3415'>0.78664E+02</wgt>
<wgt id='3416'>0.78179E+02</wgt>
<wgt id='3417'>0.78261E+02</wgt>
<wgt id='3418'>0.78014E+02</wgt>
<wgt id='3419'>0.77970E+02</wgt>
<wgt id='3420'>0.79113E+02</wgt>
<wgt id='3421'>0.79228E+02</wgt>
<wgt id='3422'>0.78974E+02</wgt>
<wgt id='3423'>0.79231E+02</wgt>
<wgt id='3424'>0.78727E+02</wgt>
<wgt id='3425'>0.78508E+02</wgt>
<wgt id='3426'>0.78728E+02</wgt>
<wgt id='3427'>0.78756E+02</wgt>
<wgt id='3428'>0.79183E+02</wgt>
<wgt id='3429'>0.77920E+02</wgt>
<wgt id='3430'>0.78724E+02</wgt>
<wgt id='3431'>0.78247E+02</wgt>
<wgt id='3432'>0.77768E+02</wgt>
<wgt id='3433'>0.77060E+02</wgt>
<wgt id='3434'>0.78463E+02</wgt>
<wgt id='3435'>0.78694E+02</wgt>
<wgt id='3436'>0.78553E+02</wgt>
<wgt id='3437'>0.78043E+02</wgt>
<wgt id='3438'>0.77700E+02</wgt>
<wgt id='3439'>0.79367E+02</wgt>
<wgt id='3440'>0.78620E+02</wgt>
<wgt id='3441'>0.78538E+02</wgt>
<wgt id='3442'>0.77182E+02</wgt>
<wgt id='3443'>0.78218E+02</wgt>
<wgt id='3444'>0.78563E+02</wgt>
<wgt id='3445'>0.78043E+02</wgt>
<wgt id='3446'>0.79522E+02</wgt>
<wgt id='3447'>0.79979E+02</wgt>
<wgt id='3448'>0.78861E+02</wgt>
<wgt id='3449'>0.79378E+02</wgt>
<wgt id='3450'>0.78604E+02</wgt>
<wgt id='3451'>0.79233E+02</wgt>
<wgt id='3452'>0.77918E+02</wgt>
<wgt id='3453'>0.77759E+02</wgt>
<wgt id='3454'>0.77453E+02</wgt>
<wgt id='3455'>0.79565E+02</wgt>
<wgt id='3456'>0.78863E+02</wgt>
<wgt id='3457'>0.79771E+02</wgt>
<wgt id='3458'>0.78833E+02</wgt>
<wgt id='3459'>0.78287E+02</wgt>
<wgt id='3460'>0.78306E+02</wgt>
<wgt id='3461'>0.78092E+02</wgt>
<wgt id='3462'>0.77999E+02</wgt>
<wgt id='3463'>0.77819E+02</wgt>
<wgt id='3464'>0.78815E+02</wgt>
<wgt id='3465'>0.78216E+02</wgt>
<wgt id='3466'>0.78993E+02</wgt>
<wgt id='3467'>0.78190E+02</wgt>
<wgt id='3468'>0.77789E+02</wgt>
<wgt id='3469'>0.78797E+02</wgt>
<wgt id='3470'>0.78465E+02</wgt>
<wgt id='3471'>0.78337E+02</wgt>
<wgt id='3472'>0.77830E+02</wgt>
<wgt id='3473'>0.78597E+02</wgt>
<wgt id='3474'>0.78618E+02</wgt>
<wgt id='3475'>0.78234E+02</wgt>
<wgt id='3476'>0.78476E+02</wgt>
<wgt id='3477'>0.77835E+02</wgt>
<wgt id='3478'>0.78955E+02</wgt>
<wgt id='3479'>0.79176E+02</wgt>
<wgt id='3480'>0.77583E+02</wgt>
<wgt id='3481'>0.78299E+02</wgt>
<wgt id='3482'>0.78267E+02</wgt>
<wgt id='3483'>0.76977E+02</wgt>
<wgt id='3484'>0.78596E+02</wgt>
<wgt id='3485'>0.78088E+02</wgt>
<wgt id='3486'>0.77511E+02</wgt>
<wgt id='3487'>0.79005E+02</wgt>
<wgt id='3488'>0.79169E+02</wgt>
<wgt id='3489'>0.77794E+02</wgt>
<wgt id='3490'>0.79093E+02</wgt>
<wgt id='3491'>0.77948E+02</wgt>
<wgt id='3492'>0.78935E+02</wgt>
<wgt id='3493'>0.77442E+02</wgt>
<wgt id='3494'>0.76567E+02</wgt>
<wgt id='3495'>0.78674E+02</wgt>
<wgt id='3496'>0.77403E+02</wgt>
<wgt id='3497'>0.77911E+02</wgt>
<wgt id='3498'>0.78253E+02</wgt>
<wgt id='3499'>0.78629E+02</wgt>
<wgt id='3500'>0.78704E+02</wgt>
</rwgt>
</event>
<event>
     13 322200  8.11039E+01  6.08722E+00 -1.00000E+00  2.19141E-01
      -1    -1     0     0     0   512  0.000000000E+00  0.000000000E+00  3.975294068E+01  3.975294068E+01  0.000000000E+00  0.00000E+00  9.000E+00
       1    -1     0     0   503     0  0.000000000E+00  0.000000000E+00 -1.147437887E+03  1.147437887E+03  0.000000000E+00  0.00000E+00  9.000E+00
       6     2     1     2   502     0 -1.096194425E+02  2.672428546E+01 -4.489532148E+02  4.937020716E+02  1.716162487E+02  0.00000E+00  9.000E+00
      -6     2     1     2     0   512  1.153947696E+02 -2.864778230E+01 -6.224878197E+02  6.567372202E+02  1.722673575E+02  0.00000E+00  9.000E+00
      21     1     1     2   503   502 -5.775327072E+00  1.923496834E+00 -3.624391173E+01  3.675153575E+01  8.259061849E-07  0.00000E+00  9.000E+00
      24     2     3     3     0     0 -1.140387950E+02  2.138057831E+01 -4.586412717E+02  4.807580409E+02  8.552486113E+01  0.00000E+00  9.000E+00
       5     1     3     3   502     0  4.419352432E+00  5.343707150E+00  9.688056975E+00  1.294403067E+01  5.060000000E+00  0.00000E+00 -1.000E+00
     -24     2     4     4     0     0  6.740771201E+01 -5.204126825E+01 -5.715343812E+02  5.827651351E+02  7.557486718E+01  0.00000E+00  9.000E+00
      -5     1     4     4     0   512  4.798705759E+01  2.339348595E+01 -5.095343847E+01  7.397208510E+01  5.060000000E+00  0.00000E+00  1.000E+00
     -15     1     6     6     0     0 -7.999983467E+01  2.192913469E+01 -1.604792235E+02  1.806587927E+02  1.777000000E+00  0.00000E+00  1.000E+00
      16     1     6     6     0     0 -3.403896030E+01 -5.485563793E-01 -2.981620483E+02  3.000992482E+02  0.000000000E+00  0.00000E+00 -1.000E+00
      13     1     8     8     0     0  8.001442349E+01 -2.563021184E+01 -3.968941956E+02  4.056898192E+02  1.057000000E-01  0.00000E+00 -1.000E+00
     -14     1     8     8     0     0 -1.260671147E+01 -2.641105641E+01 -1.746401856E+02  1.770753159E+02  0.000000000E+00  0.00000E+00  1.000E+00
#rwgt            1           6   69.589471931103418               10       20279           0
<rwgt>
<wgt id='1001'>0.81104E+02</wgt>
<wgt id='1002'>0.77987E+02</wgt>
<wgt id='1003'>0.83711E+02</wgt>
<wgt id='1004'>0.79407E+02</wgt>
<wgt id='1005'>0.77035E+02</wgt>
<wgt id='1006'>0.81289E+02</wgt>
<wgt id='1007'>0.78693E+02</wgt>
<wgt id='1008'>0.74488E+02</wgt>
<wgt id='1009'>0.82389E+02</wgt>
<wgt id='2000'>0.81104E+02</wgt>
<wgt id='2001'>0.81482E+02</wgt>
<wgt id='2002'>0.81026E+02</wgt>
<wgt id='2003'>0.81044E+02</wgt>
<wgt id='2004'>0.81200E+02</wgt>
<wgt id='2005'>0.81280E+02</wgt>
<wgt id='2006'>0.81053E+02</wgt>
<wgt id='2007'>0.80595E+02</wgt>
<wgt id='2008'>0.80622E+02</wgt>
<wgt id='2009'>0.81014E+02</wgt>
<wgt id='2010'>0.80927E+02</wgt>
<wgt id='2011'>0.81031E+02</wgt>
<wgt id='2012'>0.81229E+02</wgt>
<wgt id='2013'>0.81279E+02</wgt>
<wgt id='2014'>0.81138E+02</wgt>
<wgt id='2015'>0.81469E+02</wgt>
<wgt id='2016'>0.80718E+02</wgt>
<wgt id='2017'>0.81297E+02</wgt>
<wgt id='2018'>0.80682E+02</wgt>
<wgt id='2019'>0.81548E+02</wgt>
<wgt id='2020'>0.81607E+02</wgt>
<wgt id='2021'>0.81029E+02</wgt>
<wgt id='2022'>0.81250E+02</wgt>
<wgt id='2023'>0.80550E+02</wgt>
<wgt id='2024'>0.81234E+02</wgt>
<wgt id='2025'>0.80800E+02</wgt>
<wgt id='2026'>0.81326E+02</wgt>
<wgt id='2027'>0.81308E+02</wgt>
<wgt id='2028'>0.81522E+02</wgt>
<wgt id='2029'>0.81539E+02</wgt>
<wgt id='2030'>0.80822E+02</wgt>
<wgt id='2031'>0.82182E+02</wgt>
<wgt id='2032'>0.81236E+02</wgt>
<wgt id='2033'>0.81400E+02</wgt>
<wgt id='2034'>0.81526E+02</wgt>
<wgt id='2035'>0.81005E+02</wgt>
<wgt id='2036'>0.80220E+02</wgt>
<wgt id='2037'>0.81972E+02</wgt>
<wgt id='2038'>0.80869E+02</wgt>
<wgt id='2039'>0.80818E+02</wgt>
<wgt id='2040'>0.81185E+02</wgt>
<wgt id='2041'>0.81101E+02</wgt>
<wgt id='2042'>0.81173E+02</wgt>
<wgt id='2043'>0.81036E+02</wgt>
<wgt id='2044'>0.81034E+02</wgt>
<wgt id='2045'>0.81358E+02</wgt>
<wgt id='2046'>0.80980E+02</wgt>
<wgt id='2047'>0.81230E+02</wgt>
<wgt id='2048'>0.81026E+02</wgt>
<wgt id='2049'>0.80837E+02</wgt>
<wgt id='2050'>0.80667E+02</wgt>
<wgt id='2051'>0.81037E+02</wgt>
<wgt id='2052'>0.81002E+02</wgt>
<wgt id='2053'>0.81220E+02</wgt>
<wgt id='2054'>0.81026E+02</wgt>
<wgt id='2055'>0.81374E+02</wgt>
<wgt id='2056'>0.80812E+02</wgt>
<wgt id='2057'>0.81094E+02</wgt>
<wgt id='2058'>0.81448E+02</wgt>
<wgt id='2059'>0.81138E+02</wgt>
<wgt id='2060'>0.81050E+02</wgt>
<wgt id='2061'>0.81344E+02</wgt>
<wgt id='2062'>0.81402E+02</wgt>
<wgt id='2063'>0.81161E+02</wgt>
<wgt id='2064'>0.81160E+02</wgt>
<wgt id='2065'>0.81079E+02</wgt>
<wgt id='2066'>0.81064E+02</wgt>
<wgt id='2067'>0.81133E+02</wgt>
<wgt id='2068'>0.81216E+02</wgt>
<wgt id='2069'>0.81140E+02</wgt>
<wgt id='2070'>0.81081E+02</wgt>
<wgt id='2071'>0.81244E+02</wgt>
<wgt id='2072'>0.81079E+02</wgt>
<wgt id='2073'>0.81080E+02</wgt>
<wgt id='2074'>0.81181E+02</wgt>
<wgt id='2075'>0.80963E+02</wgt>
<wgt id='2076'>0.81027E+02</wgt>
<wgt id='2077'>0.81190E+02</wgt>
<wgt id='2078'>0.81113E+02</wgt>
<wgt id='2079'>0.80998E+02</wgt>
<wgt id='2080'>0.81096E+02</wgt>
<wgt id='2081'>0.81061E+02</wgt>
<wgt id='2082'>0.81163E+02</wgt>
<wgt id='2083'>0.81132E+02</wgt>
<wgt id='2084'>0.81077E+02</wgt>
<wgt id='2085'>0.81104E+02</wgt>
<wgt id='2086'>0.81108E+02</wgt>
<wgt id='2087'>0.81128E+02</wgt>
<wgt id='2088'>0.81127E+02</wgt>
<wgt id='2089'>0.81100E+02</wgt>
<wgt id='2090'>0.81086E+02</wgt>
<wgt id='2091'>0.81100E+02</wgt>
<wgt id='2092'>0.81115E+02</wgt>
<wgt id='2093'>0.81099E+02</wgt>
<wgt id='2094'>0.81150E+02</wgt>
<wgt id='2095'>0.81103E+02</wgt>
<wgt id='2096'>0.81113E+02</wgt>
<wgt id='2097'>0.81086E+02</wgt>
<wgt id='2098'>0.81056E+02</wgt>
<wgt id='2099'>0.81130E+02</wgt>
<wgt id='2100'>0.81104E+02</wgt>
<wgt id='2101'>0.78597E+02</wgt>
<wgt id='2102'>0.83162E+02</wgt>
<wgt id='2200'>0.80895E+02</wgt>
<wgt id='2201'>0.69221E+02</wgt>
<wgt id='2202'>0.70947E+02</wgt>
<wgt id='2203'>0.73816E+02</wgt>
<wgt id='2204'>0.76534E+02</wgt>
<wgt id='2205'>0.79925E+02</wgt>
<wgt id='2206'>0.82076E+02</wgt>
<wgt id='2207'>0.85939E+02</wgt>
<wgt id='2208'>0.87543E+02</wgt>
<wgt id='2300'>0.81079E+02</wgt>
<wgt id='2301'>0.81190E+02</wgt>
<wgt id='2302'>0.80989E+02</wgt>
<wgt id='2303'>0.81179E+02</wgt>
<wgt id='2304'>0.81235E+02</wgt>
<wgt id='2305'>0.81311E+02</wgt>
<wgt id='2306'>0.80945E+02</wgt>
<wgt id='2307'>0.81581E+02</wgt>
<wgt id='2308'>0.81491E+02</wgt>
<wgt id='2309'>0.81476E+02</wgt>
<wgt id='2310'>0.80839E+02</wgt>
<wgt id='2311'>0.80849E+02</wgt>
<wgt id='2312'>0.81046E+02</wgt>
<wgt id='2313'>0.81461E+02</wgt>
<wgt id='2314'>0.81157E+02</wgt>
<wgt id='2315'>0.80853E+02</wgt>
<wgt id='2316'>0.81833E+02</wgt>
<wgt id='2317'>0.80815E+02</wgt>
<wgt id='2318'>0.81212E+02</wgt>
<wgt id='2319'>0.80941E+02</wgt>
<wgt id='2320'>0.80826E+02</wgt>
<wgt id='2321'>0.81439E+02</wgt>
<wgt id='2322'>0.80995E+02</wgt>
<wgt id='2323'>0.80763E+02</wgt>
<wgt id='2324'>0.81511E+02</wgt>
<wgt id='2325'>0.80864E+02</wgt>
<wgt id='2326'>0.81163E+02</wgt>
<wgt id='2327'>0.80742E+02</wgt>
<wgt id='2328'>0.81503E+02</wgt>
<wgt id='2329'>0.81359E+02</wgt>
<wgt id='2330'>0.79208E+02</wgt>
<wgt id='2331'>0.81100E+02</wgt>
<wgt id='2332'>0.81288E+02</wgt>
<wgt id='2333'>0.81290E+02</wgt>
<wgt id='2334'>0.80972E+02</wgt>
<wgt id='2335'>0.81517E+02</wgt>
<wgt id='2336'>0.81157E+02</wgt>
<wgt id='2337'>0.80895E+02</wgt>
<wgt id='2338'>0.81117E+02</wgt>
<wgt id='2339'>0.81221E+02</wgt>
<wgt id='2340'>0.81014E+02</wgt>
<wgt id='2341'>0.81240E+02</wgt>
<wgt id='2342'>0.80854E+02</wgt>
<wgt id='2343'>0.81201E+02</wgt>
<wgt id='2344'>0.81022E+02</wgt>
<wgt id='2345'>0.81209E+02</wgt>
<wgt id='2346'>0.81021E+02</wgt>
<wgt id='2347'>0.81058E+02</wgt>
<wgt id='2348'>0.81287E+02</wgt>
<wgt id='2349'>0.80638E+02</wgt>
<wgt id='2350'>0.81034E+02</wgt>
<wgt id='2351'>0.81602E+02</wgt>
<wgt id='2352'>0.81007E+02</wgt>
<wgt id='2353'>0.81348E+02</wgt>
<wgt id='2354'>0.81227E+02</wgt>
<wgt id='2355'>0.80909E+02</wgt>
<wgt id='2356'>0.81121E+02</wgt>
<wgt id='2357'>0.80977E+02</wgt>
<wgt id='2358'>0.81134E+02</wgt>
<wgt id='2359'>0.80981E+02</wgt>
<wgt id='2360'>0.81307E+02</wgt>
<wgt id='2361'>0.81175E+02</wgt>
<wgt id='2362'>0.81309E+02</wgt>
<wgt id='2363'>0.81092E+02</wgt>
<wgt id='2364'>0.81247E+02</wgt>
<wgt id='2365'>0.80921E+02</wgt>
<wgt id='2366'>0.81048E+02</wgt>
<wgt id='2367'>0.81138E+02</wgt>
<wgt id='2368'>0.80955E+02</wgt>
<wgt id='2369'>0.80994E+02</wgt>
<wgt id='2370'>0.81228E+02</wgt>
<wgt id='2371'>0.81192E+02</wgt>
<wgt id='2372'>0.81144E+02</wgt>
<wgt id='2373'>0.81170E+02</wgt>
<wgt id='2374'>0.81051E+02</wgt>
<wgt id='2375'>0.81058E+02</wgt>
<wgt id='2376'>0.80965E+02</wgt>
<wgt id='2377'>0.81156E+02</wgt>
<wgt id='2378'>0.80980E+02</wgt>
<wgt id='2379'>0.81082E+02</wgt>
<wgt id='2380'>0.81025E+02</wgt>
<wgt id='2381'>0.81076E+02</wgt>
<wgt id='2382'>0.81212E+02</wgt>
<wgt id='2383'>0.81104E+02</wgt>
<wgt id='2384'>0.81098E+02</wgt>
<wgt id='2385'>0.81141E+02</wgt>
<wgt id='2386'>0.81058E+02</wgt>
<wgt id='2387'>0.81026E+02</wgt>
<wgt id='2388'>0.81168E+02</wgt>
<wgt id='2389'>0.81172E+02</wgt>
<wgt id='2390'>0.81039E+02</wgt>
<wgt id='2391'>0.81046E+02</wgt>
<wgt id='2392'>0.81070E+02</wgt>
<wgt id='2393'>0.81064E+02</wgt>
<wgt id='2394'>0.81104E+02</wgt>
<wgt id='2395'>0.81212E+02</wgt>
<wgt id='2396'>0.81092E+02</wgt>
<wgt id='2397'>0.81146E+02</wgt>
<wgt id='2398'>0.81006E+02</wgt>
<wgt id='2399'>0.81154E+02</wgt>
<wgt id='2400'>0.81025E+02</wgt>
<wgt id='2401'>0.78590E+02</wgt>
<wgt id='2402'>0.83554E+02</wgt>
<wgt id='2500'>0.78634E+02</wgt>
<wgt id='2501'>0.78246E+02</wgt>
<wgt id='2600'>0.79397E+02</wgt>
<wgt id='2601'>0.79294E+02</wgt>
<wgt id='2602'>0.79284E+02</wgt>
<wgt id='2603'>0.79428E+02</wgt>
<wgt id='2604'>0.79231E+02</wgt>
<wgt id='2605'>0.78429E+02</wgt>
<wgt id='2606'>0.80199E+02</wgt>
<wgt id='2607'>0.79802E+02</wgt>
<wgt id='2608'>0.79527E+02</wgt>
<wgt id='2609'>0.79627E+02</wgt>
<wgt id='2610'>0.79791E+02</wgt>
<wgt id='2611'>0.78700E+02</wgt>
<wgt id='2612'>0.79524E+02</wgt>
<wgt id='2613'>0.79001E+02</wgt>
<wgt id='2614'>0.78663E+02</wgt>
<wgt id='2615'>0.79653E+02</wgt>
<wgt id='2616'>0.79501E+02</wgt>
<wgt id='2617'>0.79639E+02</wgt>
<wgt id='2618'>0.79314E+02</wgt>
<wgt id='2619'>0.78926E+02</wgt>
<wgt id='2620'>0.79726E+02</wgt>
<wgt id='2621'>0.79864E+02</wgt>
<wgt id='2622'>0.79437E+02</wgt>
<wgt id='2623'>0.79593E+02</wgt>
<wgt id='2624'>0.79335E+02</wgt>
<wgt id='2625'>0.79366E+02</wgt>
<wgt id='2626'>0.79356E+02</wgt>
<wgt id='2627'>0.79198E+02</wgt>
<wgt id='2628'>0.79459E+02</wgt>
<wgt id='2629'>0.79524E+02</wgt>
<wgt id='2630'>0.79362E+02</wgt>
<wgt id='2631'>0.79534E+02</wgt>
<wgt id='2632'>0.79439E+02</wgt>
<wgt id='2633'>0.79424E+02</wgt>
<wgt id='2634'>0.79335E+02</wgt>
<wgt id='2635'>0.79504E+02</wgt>
<wgt id='2636'>0.79425E+02</wgt>
<wgt id='2637'>0.79480E+02</wgt>
<wgt id='2638'>0.79339E+02</wgt>
<wgt id='2639'>0.79249E+02</wgt>
<wgt id='2640'>0.79494E+02</wgt>
<wgt id='2641'>0.79453E+02</wgt>
<wgt id='2642'>0.79520E+02</wgt>
<wgt id='2643'>0.79246E+02</wgt>
<wgt id='2644'>0.79403E+02</wgt>
<wgt id='2645'>0.79308E+02</wgt>
<wgt id='2646'>0.79386E+02</wgt>
<wgt id='2647'>0.79353E+02</wgt>
<wgt id='2648'>0.79495E+02</wgt>
<wgt id='2649'>0.79502E+02</wgt>
<wgt id='2650'>0.79444E+02</wgt>
<wgt id='2651'>0.79183E+02</wgt>
<wgt id='2652'>0.79769E+02</wgt>
<wgt id='2700'>0.79283E+02</wgt>
<wgt id='2701'>0.79183E+02</wgt>
<wgt id='2702'>0.79341E+02</wgt>
<wgt id='2703'>0.79215E+02</wgt>
<wgt id='2704'>0.79769E+02</wgt>
<wgt id='2705'>0.80167E+02</wgt>
<wgt id='2800'>0.85692E+02</wgt>
<wgt id='4000'>0.78013E+02</wgt>
<wgt id='4001'>0.78413E+02</wgt>
<wgt id='4002'>0.75718E+02</wgt>
<wgt id='4003'>0.76535E+02</wgt>
<wgt id='4004'>0.79199E+02</wgt>
<wgt id='4005'>0.75441E+02</wgt>
<wgt id='4006'>0.79890E+02</wgt>
<wgt id='4007'>0.76628E+02</wgt>
<wgt id='4008'>0.79288E+02</wgt>
<wgt id='4009'>0.77200E+02</wgt>
<wgt id='4010'>0.78674E+02</wgt>
<wgt id='4011'>0.79053E+02</wgt>
<wgt id='4012'>0.76035E+02</wgt>
<wgt id='4013'>0.78807E+02</wgt>
<wgt id='4014'>0.77477E+02</wgt>
<wgt id='4015'>0.78895E+02</wgt>
<wgt id='4016'>0.76825E+02</wgt>
<wgt id='4017'>0.77648E+02</wgt>
<wgt id='4018'>0.78076E+02</wgt>
<wgt id='4019'>0.79892E+02</wgt>
<wgt id='4020'>0.75315E+02</wgt>
<wgt id='4021'>0.78053E+02</wgt>
<wgt id='4022'>0.77905E+02</wgt>
<wgt id='4023'>0.77382E+02</wgt>
<wgt id='4024'>0.78638E+02</wgt>
<wgt id='4025'>0.78512E+02</wgt>
<wgt id='4026'>0.76643E+02</wgt>
<wgt id='4027'>0.77071E+02</wgt>
<wgt id='4028'>0.78613E+02</wgt>
<wgt id='4029'>0.78437E+02</wgt>
<wgt id='4030'>0.78051E+02</wgt>
<wgt id='4031'>0.77796E+02</wgt>
<wgt id='4032'>0.78160E+02</wgt>
<wgt id='4033'>0.78009E+02</wgt>
<wgt id='4034'>0.78187E+02</wgt>
<wgt id='4035'>0.77964E+02</wgt>
<wgt id='4036'>0.77990E+02</wgt>
<wgt id='4037'>0.77438E+02</wgt>
<wgt id='4038'>0.77791E+02</wgt>
<wgt id='4039'>0.75592E+02</wgt>
<wgt id='4040'>0.80200E+02</wgt>
<wgt id='4041'>0.79486E+02</wgt>
<wgt id='4042'>0.76630E+02</wgt>
<wgt id='4043'>0.77121E+02</wgt>
<wgt id='4044'>0.79142E+02</wgt>
<wgt id='4045'>0.76155E+02</wgt>
<wgt id='4046'>0.78882E+02</wgt>
<wgt id='4047'>0.77896E+02</wgt>
<wgt id='4048'>0.78145E+02</wgt>
<wgt id='4049'>0.79792E+02</wgt>
<wgt id='4050'>0.76118E+02</wgt>
<wgt id='4051'>0.77552E+02</wgt>
<wgt id='4052'>0.77822E+02</wgt>
<wgt id='4053'>0.78035E+02</wgt>
<wgt id='4054'>0.77945E+02</wgt>
<wgt id='4055'>0.78134E+02</wgt>
<wgt id='4056'>0.78238E+02</wgt>
<wgt id='4057'>0.77899E+02</wgt>
<wgt id='4058'>0.78148E+02</wgt>
<wgt id='4100'>0.78611E+02</wgt>
<wgt id='4101'>0.78315E+02</wgt>
<wgt id='4102'>0.77714E+02</wgt>
<wgt id='4103'>0.77423E+02</wgt>
<wgt id='4200'>0.78928E+02</wgt>
<wgt id='4201'>0.77421E+02</wgt>
<wgt id='4202'>0.79403E+02</wgt>
<wgt id='4203'>0.78667E+02</wgt>
<wgt id='4204'>0.79307E+02</wgt>
<wgt id='4205'>0.79998E+02</wgt>
<wgt id='4206'>0.77375E+02</wgt>
<wgt id='4207'>0.79814E+02</wgt>
<wgt id='4208'>0.78992E+02</wgt>
<wgt id='4209'>0.79046E+02</wgt>
<wgt id='4210'>0.79128E+02</wgt>
<wgt id='4211'>0.79235E+02</wgt>
<wgt id='4212'>0.78629E+02</wgt>
<wgt id='4213'>0.79204E+02</wgt>
<wgt id='4214'>0.78836E+02</wgt>
<wgt id='4215'>0.79982E+02</wgt>
<wgt id='4216'>0.76406E+02</wgt>
<wgt id='4217'>0.78938E+02</wgt>
<wgt id='4218'>0.78917E+02</wgt>
<wgt id='4219'>0.79011E+02</wgt>
<wgt id='4220'>0.79272E+02</wgt>
<wgt id='4221'>0.78917E+02</wgt>
<wgt id='4222'>0.78200E+02</wgt>
<wgt id='4223'>0.78438E+02</wgt>
<wgt id='4224'>0.79601E+02</wgt>
<wgt id='4225'>0.78802E+02</wgt>
<wgt id='4226'>0.78802E+02</wgt>
<wgt id='4227'>0.79591E+02</wgt>
<wgt id='4228'>0.78310E+02</wgt>
<wgt id='4229'>0.79082E+02</wgt>
<wgt id='4230'>0.79186E+02</wgt>
<wgt id='4231'>0.80392E+02</wgt>
<wgt id='4232'>0.76562E+02</wgt>
<wgt id='4233'>0.79198E+02</wgt>
<wgt id='4234'>0.78923E+02</wgt>
<wgt id='4235'>0.77807E+02</wgt>
<wgt id='4236'>0.79729E+02</wgt>
<wgt id='4237'>0.78656E+02</wgt>
<wgt id='4238'>0.79134E+02</wgt>
<wgt id='4239'>0.78441E+02</wgt>
<wgt id='4240'>0.79595E+02</wgt>
<wgt id='4241'>0.79582E+02</wgt>
<wgt id='4242'>0.78266E+02</wgt>
<wgt id='4243'>0.77451E+02</wgt>
<wgt id='4244'>0.81047E+02</wgt>
<wgt id='4245'>0.78619E+02</wgt>
<wgt id='4246'>0.79233E+02</wgt>
<wgt id='4247'>0.77918E+02</wgt>
<wgt id='4248'>0.79730E+02</wgt>
<wgt id='4249'>0.76895E+02</wgt>
<wgt id='4250'>0.80910E+02</wgt>
<wgt id='4251'>0.77088E+02</wgt>
<wgt id='4252'>0.79996E+02</wgt>
<wgt id='4253'>0.78614E+02</wgt>
<wgt id='4254'>0.79380E+02</wgt>
<wgt id='4255'>0.77366E+02</wgt>
<wgt id='4256'>0.80084E+02</wgt>
<wgt id='4257'>0.78434E+02</wgt>
<wgt id='4258'>0.79085E+02</wgt>
<wgt id='4300'>0.77071E+02</wgt>
<wgt id='4301'>0.78180E+02</wgt>
<wgt id='5000'>0.77039E+02</wgt>
<wgt id='5001'>0.77114E+02</wgt>
<wgt id='5002'>0.76942E+02</wgt>
<wgt id='5003'>0.76670E+02</wgt>
<wgt id='5004'>0.77376E+02</wgt>
<wgt id='5005'>0.76900E+02</wgt>
<wgt id='5006'>0.77266E+02</wgt>
<wgt id='5007'>0.77135E+02</wgt>
<wgt id='5008'>0.76960E+02</wgt>
<wgt id='5009'>0.77034E+02</wgt>
<wgt id='5010'>0.77044E+02</wgt>
<wgt id='5011'>0.76641E+02</wgt>
<wgt id='5012'>0.77424E+02</wgt>
<wgt id='5013'>0.77084E+02</wgt>
<wgt id='5014'>0.77007E+02</wgt>
<wgt id='5015'>0.77125E+02</wgt>
<wgt id='5016'>0.77125E+02</wgt>
<wgt id='5017'>0.76759E+02</wgt>
<wgt id='5018'>0.77226E+02</wgt>
<wgt id='5019'>0.76763E+02</wgt>
<wgt id='5020'>0.77419E+02</wgt>
<wgt id='5021'>0.77186E+02</wgt>
<wgt id='5022'>0.76792E+02</wgt>
<wgt id='5023'>0.77325E+02</wgt>
<wgt id='5024'>0.76351E+02</wgt>
<wgt id='5025'>0.77622E+02</wgt>
<wgt id='5026'>0.76398E+02</wgt>
<wgt id='5027'>0.77020E+02</wgt>
<wgt id='5028'>0.77088E+02</wgt>
<wgt id='5029'>0.76803E+02</wgt>
<wgt id='5030'>0.77160E+02</wgt>
<wgt id='5031'>0.77646E+02</wgt>
<wgt id='5032'>0.75204E+02</wgt>
<wgt id='5033'>0.77487E+02</wgt>
<wgt id='5034'>0.76558E+02</wgt>
<wgt id='5035'>0.76565E+02</wgt>
<wgt id='5036'>0.77672E+02</wgt>
<wgt id='5037'>0.77127E+02</wgt>
<wgt id='5038'>0.76986E+02</wgt>
<wgt id='5039'>0.76534E+02</wgt>
<wgt id='5040'>0.78267E+02</wgt>
<wgt id='5041'>0.77538E+02</wgt>
<wgt id='5042'>0.76512E+02</wgt>
<wgt id='5043'>0.78536E+02</wgt>
<wgt id='5044'>0.75583E+02</wgt>
<wgt id='5045'>0.76745E+02</wgt>
<wgt id='5046'>0.77639E+02</wgt>
<wgt id='5047'>0.76901E+02</wgt>
<wgt id='5048'>0.77487E+02</wgt>
<wgt id='5049'>0.76954E+02</wgt>
<wgt id='5050'>0.76884E+02</wgt>
<wgt id='5051'>0.76868E+02</wgt>
<wgt id='5052'>0.77140E+02</wgt>
<wgt id='5053'>0.76892E+02</wgt>
<wgt id='5054'>0.76941E+02</wgt>
<wgt id='5055'>0.76753E+02</wgt>
<wgt id='5056'>0.77371E+02</wgt>
<wgt id='5057'>0.75653E+02</wgt>
<wgt id='5058'>0.77892E+02</wgt>
<wgt id='5059'>0.77162E+02</wgt>
<wgt id='5060'>0.76925E+02</wgt>
<wgt id='5061'>0.76216E+02</wgt>
<wgt id='5062'>0.77243E+02</wgt>
<wgt id='5063'>0.77992E+02</wgt>
<wgt id='5064'>0.76848E+02</wgt>
<wgt id='5100'>0.77039E+02</wgt>
<wgt id='5101'>0.77065E+02</wgt>
<wgt id='6000'>0.77647E+02</wgt>
<wgt id='6001'>0.77384E+02</wgt>
<wgt id='6002'>0.77488E+02</wgt>
<wgt id='6003'>0.77282E+02</wgt>
<wgt id='6004'>0.76712E+02</wgt>
<wgt id='6005'>0.77766E+02</wgt>
<wgt id='6006'>0.77360E+02</wgt>
<wgt id='6007'>0.77845E+02</wgt>
<wgt id='6008'>0.77676E+02</wgt>
<wgt id='6009'>0.78179E+02</wgt>
<wgt id='6010'>0.77778E+02</wgt>
<wgt id='6011'>0.77193E+02</wgt>
<wgt id='6012'>0.77691E+02</wgt>
<wgt id='6013'>0.78101E+02</wgt>
<wgt id='6014'>0.77809E+02</wgt>
<wgt id='6015'>0.77710E+02</wgt>
<wgt id='6016'>0.78174E+02</wgt>
<wgt id='6017'>0.79958E+02</wgt>
<wgt id='6018'>0.77699E+02</wgt>
<wgt id='6019'>0.77596E+02</wgt>
<wgt id='6020'>0.77744E+02</wgt>
<wgt id='6021'>0.77147E+02</wgt>
<wgt id='6022'>0.77410E+02</wgt>
<wgt id='6023'>0.77695E+02</wgt>
<wgt id='6024'>0.77887E+02</wgt>
<wgt id='6025'>0.77254E+02</wgt>
<wgt id='6026'>0.77712E+02</wgt>
<wgt id='6027'>0.76338E+02</wgt>
<wgt id='6028'>0.77555E+02</wgt>
<wgt id='6029'>0.77477E+02</wgt>
<wgt id='6030'>0.77761E+02</wgt>
<wgt id='6031'>0.77547E+02</wgt>
<wgt id='6032'>0.77608E+02</wgt>
<wgt id='6033'>0.77636E+02</wgt>
<wgt id='6034'>0.77625E+02</wgt>
<wgt id='6035'>0.77602E+02</wgt>
<wgt id='6036'>0.77625E+02</wgt>
<wgt id='6037'>0.77647E+02</wgt>
<wgt id='6038'>0.77658E+02</wgt>
<wgt id='6039'>0.77648E+02</wgt>
<wgt id='6040'>0.77914E+02</wgt>
<wgt id='6041'>0.76919E+02</wgt>
<wgt id='6042'>0.79101E+02</wgt>
<wgt id='7000'>0.85193E+02</wgt>
<wgt id='7001'>0.85293E+02</wgt>
<wgt id='7002'>0.85072E+02</wgt>
<wgt id='7003'>0.85092E+02</wgt>
<wgt id='7004'>0.85273E+02</wgt>
<wgt id='7005'>0.85202E+02</wgt>
<wgt id='7006'>0.85163E+02</wgt>
<wgt id='7007'>0.84950E+02</wgt>
<wgt id='7008'>0.85406E+02</wgt>
<wgt id='7009'>0.85056E+02</wgt>
<wgt id='7010'>0.85305E+02</wgt>
<wgt id='7011'>0.83616E+02</wgt>
<wgt id='7012'>0.86728E+02</wgt>
<wgt id='7013'>0.85481E+02</wgt>
<wgt id='7014'>0.84882E+02</wgt>
<wgt id='7015'>0.85049E+02</wgt>
<wgt id='7016'>0.85310E+02</wgt>
<wgt id='7017'>0.85084E+02</wgt>
<wgt id='7018'>0.85265E+02</wgt>
<wgt id='7019'>0.83554E+02</wgt>
<wgt id='7020'>0.86743E+02</wgt>
<wgt id='7021'>0.85333E+02</wgt>
<wgt id='7022'>0.84977E+02</wgt>
<wgt id='7023'>0.86409E+02</wgt>
<wgt id='7024'>0.84031E+02</wgt>
<wgt id='7025'>0.85081E+02</wgt>
<wgt id='7026'>0.85513E+02</wgt>
<wgt id='7027'>0.84450E+02</wgt>
<wgt id='7028'>0.86077E+02</wgt>
<wgt id='8000'>0.74718E+02</wgt>
<wgt id='8001'>0.74705E+02</wgt>
<wgt id='8002'>0.74732E+02</wgt>
<wgt id='8003'>0.74636E+02</wgt>
<wgt id='8004'>0.74720E+02</wgt>
<wgt id='8005'>0.74837E+02</wgt>
<wgt id='8006'>0.74401E+02</wgt>
<wgt id='8007'>0.74860E+02</wgt>
<wgt id='8008'>0.74798E+02</wgt>
<wgt id='8009'>0.74140E+02</wgt>
<wgt id='8010'>0.74882E+02</wgt>
<wgt id='8011'>0.74882E+02</wgt>
<wgt id='8012'>0.74977E+02</wgt>
<wgt id='8013'>0.74713E+02</wgt>
<wgt id='8014'>0.74724E+02</wgt>
<wgt id='8015'>0.74711E+02</wgt>
<wgt id='8016'>0.74416E+02</wgt>
<wgt id='8017'>0.74558E+02</wgt>
<wgt id='8018'>0.74667E+02</wgt>
<wgt id='8019'>0.74979E+02</wgt>
<wgt id='8020'>0.74603E+02</wgt>
<wgt id='8021'>0.74431E+02</wgt>
<wgt id='8022'>0.74701E+02</wgt>
<wgt id='8023'>0.75109E+02</wgt>
<wgt id='8024'>0.75021E+02</wgt>
<wgt id='8025'>0.74722E+02</wgt>
<wgt id='8026'>0.75089E+02</wgt>
<wgt id='8027'>0.75373E+02</wgt>
<wgt id='8028'>0.74111E+02</wgt>
<wgt id='8029'>0.74015E+02</wgt>
<wgt id='3000'>0.81104E+02</wgt>
<wgt id='3001'>0.84016E+02</wgt>
<wgt id='3002'>0.82395E+02</wgt>
<wgt id='3003'>0.78247E+02</wgt>
<wgt id='3004'>0.77528E+02</wgt>
<wgt id='3005'>0.80594E+02</wgt>
<wgt id='3006'>0.86607E+02</wgt>
<wgt id='3007'>0.81562E+02</wgt>
<wgt id='3008'>0.78742E+02</wgt>
<wgt id='3009'>0.83778E+02</wgt>
<wgt id='3010'>0.75580E+02</wgt>
<wgt id='3011'>0.78087E+02</wgt>
<wgt id='3012'>0.80401E+02</wgt>
<wgt id='3013'>0.78578E+02</wgt>
<wgt id='3014'>0.80509E+02</wgt>
<wgt id='3015'>0.84315E+02</wgt>
<wgt id='3016'>0.81839E+02</wgt>
<wgt id='3017'>0.81218E+02</wgt>
<wgt id='3018'>0.82706E+02</wgt>
<wgt id='3019'>0.81822E+02</wgt>
<wgt id='3020'>0.78974E+02</wgt>
<wgt id='3021'>0.82215E+02</wgt>
<wgt id='3022'>0.85284E+02</wgt>
<wgt id='3023'>0.84506E+02</wgt>
<wgt id='3024'>0.78607E+02</wgt>
<wgt id='3025'>0.83272E+02</wgt>
<wgt id='3026'>0.81603E+02</wgt>
<wgt id='3027'>0.79258E+02</wgt>
<wgt id='3028'>0.82148E+02</wgt>
<wgt id='3029'>0.78596E+02</wgt>
<wgt id='3030'>0.82013E+02</wgt>
<wgt id='3031'>0.82382E+02</wgt>
<wgt id='3032'>0.82096E+02</wgt>
<wgt id='3033'>0.87838E+02</wgt>
<wgt id='3034'>0.77938E+02</wgt>
<wgt id='3035'>0.80510E+02</wgt>
<wgt id='3036'>0.84521E+02</wgt>
<wgt id='3037'>0.81002E+02</wgt>
<wgt id='3038'>0.79490E+02</wgt>
<wgt id='3039'>0.79348E+02</wgt>
<wgt id='3040'>0.80733E+02</wgt>
<wgt id='3041'>0.80571E+02</wgt>
<wgt id='3042'>0.82583E+02</wgt>
<wgt id='3043'>0.81221E+02</wgt>
<wgt id='3044'>0.80243E+02</wgt>
<wgt id='3045'>0.76187E+02</wgt>
<wgt id='3046'>0.82367E+02</wgt>
<wgt id='3047'>0.84687E+02</wgt>
<wgt id='3048'>0.77990E+02</wgt>
<wgt id='3049'>0.83299E+02</wgt>
<wgt id='3050'>0.81262E+02</wgt>
<wgt id='3051'>0.78615E+02</wgt>
<wgt id='3052'>0.83102E+02</wgt>
<wgt id='3053'>0.81574E+02</wgt>
<wgt id='3054'>0.83506E+02</wgt>
<wgt id='3055'>0.80441E+02</wgt>
<wgt id='3056'>0.81245E+02</wgt>
<wgt id='3057'>0.84296E+02</wgt>
<wgt id='3058'>0.85164E+02</wgt>
<wgt id='3059'>0.79995E+02</wgt>
<wgt id='3060'>0.84117E+02</wgt>
<wgt id='3061'>0.83888E+02</wgt>
<wgt id='3062'>0.83322E+02</wgt>
<wgt id='3063'>0.78641E+02</wgt>
<wgt id='3064'>0.78862E+02</wgt>
<wgt id='3065'>0.85022E+02</wgt>
<wgt id='3066'>0.79058E+02</wgt>
<wgt id='3067'>0.79538E+02</wgt>
<wgt id='3068'>0.83492E+02</wgt>
<wgt id='3069'>0.81709E+02</wgt>
<wgt id='3070'>0.79650E+02</wgt>
<wgt id='3071'>0.82599E+02</wgt>
<wgt id='3072'>0.75835E+02</wgt>
<wgt id='3073'>0.81482E+02</wgt>
<wgt id='3074'>0.78215E+02</wgt>
<wgt id='3075'>0.79862E+02</wgt>
<wgt id='3076'>0.81872E+02</wgt>
<wgt id='3077'>0.81852E+02</wgt>
<wgt id='3078'>0.84688E+02</wgt>
<wgt id='3079'>0.83888E+02</wgt>
<wgt id='3080'>0.77633E+02</wgt>
<wgt id='3081'>0.82306E+02</wgt>
<wgt id='3082'>0.81839E+02</wgt>
<wgt id='3083'>0.74956E+02</wgt>
<wgt id='3084'>0.79030E+02</wgt>
<wgt id='3085'>0.81851E+02</wgt>
<wgt id='3086'>0.83290E+02</wgt>
<wgt id='3087'>0.81447E+02</wgt>
<wgt id='3088'>0.80542E+02</wgt>
<wgt id='3089'>0.72043E+02</wgt>
<wgt id='3090'>0.81743E+02</wgt>
<wgt id='3091'>0.82283E+02</wgt>
<wgt id='3092'>0.77767E+02</wgt>
<wgt id='3093'>0.78639E+02</wgt>
<wgt id='3094'>0.81755E+02</wgt>
<wgt id='3095'>0.79803E+02</wgt>
<wgt id='3096'>0.83064E+02</wgt>
<wgt id='3097'>0.79681E+02</wgt>
<wgt id='3098'>0.80037E+02</wgt>
<wgt id='3099'>0.83483E+02</wgt>
<wgt id='3100'>0.80997E+02</wgt>
<wgt id='3200'>0.79524E+02</wgt>
<wgt id='3201'>0.79022E+02</wgt>
<wgt id='3202'>0.81426E+02</wgt>
<wgt id='3203'>0.78750E+02</wgt>
<wgt id='3204'>0.79900E+02</wgt>
<wgt id='3205'>0.82823E+02</wgt>
<wgt id='3206'>0.75853E+02</wgt>
<wgt id='3207'>0.77109E+02</wgt>
<wgt id='3208'>0.79486E+02</wgt>
<wgt id='3209'>0.80363E+02</wgt>
<wgt id='3210'>0.77442E+02</wgt>
<wgt id='3211'>0.77527E+02</wgt>
<wgt id='3212'>0.78840E+02</wgt>
<wgt id='3213'>0.76969E+02</wgt>
<wgt id='3214'>0.82813E+02</wgt>
<wgt id='3215'>0.78777E+02</wgt>
<wgt id='3216'>0.79060E+02</wgt>
<wgt id='3217'>0.79431E+02</wgt>
<wgt id='3218'>0.80344E+02</wgt>
<wgt id='3219'>0.81800E+02</wgt>
<wgt id='3220'>0.79513E+02</wgt>
<wgt id='3221'>0.79047E+02</wgt>
<wgt id='3222'>0.75616E+02</wgt>
<wgt id='3223'>0.79564E+02</wgt>
<wgt id='3224'>0.77725E+02</wgt>
<wgt id='3225'>0.81443E+02</wgt>
<wgt id='3226'>0.76740E+02</wgt>
<wgt id='3227'>0.79283E+02</wgt>
<wgt id='3228'>0.81206E+02</wgt>
<wgt id='3229'>0.79091E+02</wgt>
<wgt id='3230'>0.78669E+02</wgt>
<wgt id='3231'>0.80439E+02</wgt>
<wgt id='3232'>0.81842E+02</wgt>
<wgt id='3233'>0.81689E+02</wgt>
<wgt id='3234'>0.80333E+02</wgt>
<wgt id='3235'>0.75695E+02</wgt>
<wgt id='3236'>0.80282E+02</wgt>
<wgt id='3237'>0.80705E+02</wgt>
<wgt id='3238'>0.80292E+02</wgt>
<wgt id='3239'>0.82440E+02</wgt>
<wgt id='3240'>0.75978E+02</wgt>
<wgt id='3241'>0.85974E+02</wgt>
<wgt id='3242'>0.75623E+02</wgt>
<wgt id='3243'>0.80273E+02</wgt>
<wgt id='3244'>0.78860E+02</wgt>
<wgt id='3245'>0.79019E+02</wgt>
<wgt id='3246'>0.78693E+02</wgt>
<wgt id='3247'>0.78975E+02</wgt>
<wgt id='3248'>0.77424E+02</wgt>
<wgt id='3249'>0.78983E+02</wgt>
<wgt id='3250'>0.75483E+02</wgt>
<wgt id='3251'>0.79058E+02</wgt>
<wgt id='3252'>0.79879E+02</wgt>
<wgt id='3253'>0.81221E+02</wgt>
<wgt id='3254'>0.79625E+02</wgt>
<wgt id='3255'>0.74411E+02</wgt>
<wgt id='3256'>0.79594E+02</wgt>
<wgt id='3257'>0.73775E+02</wgt>
<wgt id='3258'>0.80722E+02</wgt>
<wgt id='3259'>0.80635E+02</wgt>
<wgt id='3260'>0.80838E+02</wgt>
<wgt id='3261'>0.77985E+02</wgt>
<wgt id='3262'>0.77259E+02</wgt>
<wgt id='3263'>0.81248E+02</wgt>
<wgt id='3264'>0.77492E+02</wgt>
<wgt id='3265'>0.79260E+02</wgt>
<wgt id='3266'>0.80705E+02</wgt>
<wgt id='3267'>0.79569E+02</wgt>
<wgt id='3268'>0.78992E+02</wgt>
<wgt id='3269'>0.80051E+02</wgt>
<wgt id='3270'>0.81288E+02</wgt>
<wgt id='3271'>0.78545E+02</wgt>
<wgt id='3272'>0.79849E+02</wgt>
<wgt id='3273'>0.78027E+02</wgt>
<wgt id='3274'>0.80127E+02</wgt>
<wgt id='3275'>0.81015E+02</wgt>
<wgt id='3276'>0.80600E+02</wgt>
<wgt id='3277'>0.82871E+02</wgt>
<wgt id='3278'>0.78429E+02</wgt>
<wgt id='3279'>0.80256E+02</wgt>
<wgt id='3280'>0.82510E+02</wgt>
<wgt id='3281'>0.79381E+02</wgt>
<wgt id='3282'>0.82863E+02</wgt>
<wgt id='3283'>0.78984E+02</wgt>
<wgt id='3284'>0.79083E+02</wgt>
<wgt id='3285'>0.79061E+02</wgt>
<wgt id='3286'>0.79115E+02</wgt>
<wgt id='3287'>0.78399E+02</wgt>
<wgt id='3288'>0.80352E+02</wgt>
<wgt id='3289'>0.79874E+02</wgt>
<wgt id='3290'>0.80805E+02</wgt>
<wgt id='3291'>0.77656E+02</wgt>
<wgt id='3292'>0.78929E+02</wgt>
<wgt id='3293'>0.79987E+02</wgt>
<wgt id='3294'>0.80941E+02</wgt>
<wgt id='3295'>0.81916E+02</wgt>
<wgt id='3296'>0.78758E+02</wgt>
<wgt id='3297'>0.83455E+02</wgt>
<wgt id='3298'>0.78669E+02</wgt>
<wgt id='3299'>0.80546E+02</wgt>
<wgt id='3300'>0.83825E+02</wgt>
<wgt id='3301'>0.79183E+02</wgt>
<wgt id='3302'>0.79769E+02</wgt>
<wgt id='3400'>0.80780E+02</wgt>
<wgt id='3401'>0.79284E+02</wgt>
<wgt id='3402'>0.81472E+02</wgt>
<wgt id='3403'>0.81436E+02</wgt>
<wgt id='3404'>0.80657E+02</wgt>
<wgt id='3405'>0.79469E+02</wgt>
<wgt id='3406'>0.83270E+02</wgt>
<wgt id='3407'>0.76970E+02</wgt>
<wgt id='3408'>0.79816E+02</wgt>
<wgt id='3409'>0.81236E+02</wgt>
<wgt id='3410'>0.81612E+02</wgt>
<wgt id='3411'>0.77762E+02</wgt>
<wgt id='3412'>0.79830E+02</wgt>
<wgt id='3413'>0.79092E+02</wgt>
<wgt id='3414'>0.83011E+02</wgt>
<wgt id='3415'>0.81380E+02</wgt>
<wgt id='3416'>0.82646E+02</wgt>
<wgt id='3417'>0.81607E+02</wgt>
<wgt id='3418'>0.80324E+02</wgt>
<wgt id='3419'>0.82108E+02</wgt>
<wgt id='3420'>0.82300E+02</wgt>
<wgt id='3421'>0.80440E+02</wgt>
<wgt id='3422'>0.81380E+02</wgt>
<wgt id='3423'>0.80713E+02</wgt>
<wgt id='3424'>0.80675E+02</wgt>
<wgt id='3425'>0.79098E+02</wgt>
<wgt id='3426'>0.79869E+02</wgt>
<wgt id='3427'>0.79750E+02</wgt>
<wgt id='3428'>0.83108E+02</wgt>
<wgt id='3429'>0.80002E+02</wgt>
<wgt id='3430'>0.79133E+02</wgt>
<wgt id='3431'>0.81074E+02</wgt>
<wgt id='3432'>0.81389E+02</wgt>
<wgt id='3433'>0.81047E+02</wgt>
<wgt id='3434'>0.80323E+02</wgt>
<wgt id='3435'>0.81345E+02</wgt>
<wgt id='3436'>0.81214E+02</wgt>
<wgt id='3437'>0.82003E+02</wgt>
<wgt id='3438'>0.82149E+02</wgt>
<wgt id='3439'>0.82595E+02</wgt>
<wgt id='3440'>0.81932E+02</wgt>
<wgt id='3441'>0.81342E+02</wgt>
<wgt id='3442'>0.79546E+02</wgt>
<wgt id='3443'>0.81650E+02</wgt>
<wgt id='3444'>0.79434E+02</wgt>
<wgt id='3445'>0.79835E+02</wgt>
<wgt id='3446'>0.81051E+02</wgt>
<wgt id='3447'>0.79829E+02</wgt>
<wgt id='3448'>0.85767E+02</wgt>
<wgt id='3449'>0.81113E+02</wgt>
<wgt id='3450'>0.78700E+02</wgt>
<wgt id='3451'>0.82915E+02</wgt>
<wgt id='3452'>0.80319E+02</wgt>
<wgt id='3453'>0.77786E+02</wgt>
<wgt id='3454'>0.79708E+02</wgt>
<wgt id='3455'>0.81620E+02</wgt>
<wgt id='3456'>0.80834E+02</wgt>
<wgt id='3457'>0.81242E+02</wgt>
<wgt id='3458'>0.79259E+02</wgt>
<wgt id='3459'>0.81442E+02</wgt>
<wgt id='3460'>0.81425E+02</wgt>
<wgt id='3461'>0.82101E+02</wgt>
<wgt id='3462'>0.80374E+02</wgt>
<wgt id='3463'>0.80845E+02</wgt>
<wgt id='3464'>0.81269E+02</wgt>
<wgt id='3465'>0.80352E+02</wgt>
<wgt id='3466'>0.79938E+02</wgt>
<wgt id='3467'>0.82340E+02</wgt>
<wgt id='3468'>0.81533E+02</wgt>
<wgt id='3469'>0.82867E+02</wgt>
<wgt id='3470'>0.80820E+02</wgt>
<wgt id='3471'>0.79091E+02</wgt>
<wgt id='3472'>0.79326E+02</wgt>
<wgt id='3473'>0.81881E+02</wgt>
<wgt id='3474'>0.80491E+02</wgt>
<wgt id='3475'>0.82157E+02</wgt>
<wgt id='3476'>0.83964E+02</wgt>
<wgt id='3477'>0.78078E+02</wgt>
<wgt id='3478'>0.81143E+02</wgt>
<wgt id='3479'>0.77591E+02</wgt>
<wgt id='3480'>0.81331E+02</wgt>
<wgt id='3481'>0.81529E+02</wgt>
<wgt id='3482'>0.80430E+02</wgt>
<wgt id='3483'>0.80316E+02</wgt>
<wgt id='3484'>0.80105E+02</wgt>
<wgt id='3485'>0.79895E+02</wgt>
<wgt id='3486'>0.81223E+02</wgt>
<wgt id='3487'>0.78510E+02</wgt>
<wgt id='3488'>0.79999E+02</wgt>
<wgt id='3489'>0.78749E+02</wgt>
<wgt id='3490'>0.78112E+02</wgt>
<wgt id='3491'>0.82611E+02</wgt>
<wgt id='3492'>0.82112E+02</wgt>
<wgt id='3493'>0.79592E+02</wgt>
<wgt id='3494'>0.82216E+02</wgt>
<wgt id='3495'>0.81626E+02</wgt>
<wgt id='3496'>0.81793E+02</wgt>
<wgt id='3497'>0.80559E+02</wgt>
<wgt id='3498'>0.81051E+02</wgt>
<wgt id='3499'>0.80155E+02</wgt>
<wgt id='3500'>0.80879E+02</wgt>
</rwgt>
</event>
<event>
     13 322200  8.11039E+01  6.37319E+01 -1.00000E+00  1.31475E-01
      21    -1     0     0   512   513  0.000000000E+00  0.000000000E+00  1.552840003E+02  1.552840003E+02  0.000000000E+00  0.00000E+00  9.000E+00
      -5    -1     0     0     0   512  0.000000000E+00  0.000000000E+00 -1.007524978E+03  1.007524978E+03  0.000000000E+00  0.00000E+00  9.000E+00
       6     2     1     2   502     0 -4.559076623E+01 -4.900017331E+00  7.467884415E+01  1.934203812E+02  1.724296552E+02  0.00000E+00  9.000E+00
      -6     2     1     2     0   513 -1.128635323E+01  3.363862193E+01 -3.800061218E+02  4.187515904E+02  1.723058421E+02  0.00000E+00  9.000E+00
      -5     1     1     2     0   502  5.687711947E+01 -2.873860460E+01 -5.469137006E+02  5.506370071E+02  5.060000000E+00  0.00000E+00  9.000E+00
      24     2     3     3     0     0  2.710233933E+01 -1.804929888E+01 -2.979861778E+00  8.611861328E+01  7.966945456E+01  0.00000E+00  9.000E+00
       5     1     3     3   502     0 -7.269310556E+01  1.314928155E+01  7.765870592E+01  1.073017680E+02  5.060000000E+00  0.00000E+00 -1.000E+00
     -24     2     4     4     0     0 -4.562846740E+01 -3.142990208E+01 -1.656545113E+02  1.920678677E+02  7.986772136E+01  0.00000E+00  9.000E+00
      -5     1     4     4     0   513  3.434211416E+01  6.506852401E+01 -2.143516105E+02  2.266837227E+02  5.060000000E+00  0.00000E+00  1.000E+00
     -15     1     6     6     0     0  4.451298136E+01  1.600447104E+01 -6.183382966E+00  4.773825046E+01  1.777000000E+00  0.00000E+00  1.000E+00
      16     1     6     6     0     0 -1.741064203E+01 -3.405376993E+01  3.203521188E+00  3.838036282E+01  0.000000000E+00  0.00000E+00 -1.000E+00
      13     1     8     8     0     0 -1.953762919E+01 -5.120236045E+01 -1.404163395E+02  1.507320810E+02  1.057000000E-01  0.00000E+00 -1.000E+00
     -14     1     8     8     0     0 -2.609083821E+01  1.977245837E+01 -2.523817178E+01  4.133578672E+01  0.000000000E+00  0.00000E+00  1.000E+00
#rwgt            1           1   648.61088853612762               10       21901           0
<rwgt>
<wgt id='1001'>0.81104E+02</wgt>
<wgt id='1002'>0.95040E+02</wgt>
<wgt id='1003'>0.65708E+02</wgt>
<wgt id='1004'>0.70260E+02</wgt>
<wgt id='1005'>0.80401E+02</wgt>
<wgt id='1006'>0.59026E+02</wgt>
<wgt id='1007'>0.94535E+02</wgt>
<wgt id='1008'>0.11418E+03</wgt>
<wgt id='1009'>0.72886E+02</wgt>
<wgt id='2000'>0.81104E+02</wgt>
<wgt id='2001'>0.81110E+02</wgt>
<wgt id='2002'>0.80911E+02</wgt>
<wgt id='2003'>0.81131E+02</wgt>
<wgt id='2004'>0.81269E+02</wgt>
<wgt id='2005'>0.81139E+02</wgt>
<wgt id='2006'>0.81266E+02</wgt>
<wgt id='2007'>0.81255E+02</wgt>
<wgt id='2008'>0.81431E+02</wgt>
<wgt id='2009'>0.80970E+02</wgt>
<wgt id='2010'>0.81036E+02</wgt>
<wgt id='2011'>0.80838E+02</wgt>
<wgt id='2012'>0.81226E+02</wgt>
<wgt id='2013'>0.81195E+02</wgt>
<wgt id='2014'>0.81301E+02</wgt>
<wgt id='2015'>0.81274E+02</wgt>
<wgt id='2016'>0.81133E+02</wgt>
<wgt id='2017'>0.81162E+02</wgt>
<wgt id='2018'>0.81126E+02</wgt>
<wgt id='2019'>0.81115E+02</wgt>
<wgt id='2020'>0.81038E+02</wgt>
<wgt id='2021'>0.81023E+02</wgt>
<wgt id='2022'>0.81172E+02</wgt>
<wgt id='2023'>0.81239E+02</wgt>
<wgt id='2024'>0.81002E+02</wgt>
<wgt id='2025'>0.80951E+02</wgt>
<wgt id='2026'>0.81023E+02</wgt>
<wgt id='2027'>0.80854E+02</wgt>
<wgt id='2028'>0.81161E+02</wgt>
<wgt id='2029'>0.80743E+02</wgt>
<wgt id='2030'>0.81131E+02</wgt>
<wgt id='2031'>0.80826E+02</wgt>
<wgt id='2032'>0.81230E+02</wgt>
<wgt id='2033'>0.80990E+02</wgt>
<wgt id='2034'>0.80967E+02</wgt>
<wgt id='2035'>0.81083E+02</wgt>
<wgt id='2036'>0.81279E+02</wgt>
<wgt id='2037'>0.81101E+02</wgt>
<wgt id='2038'>0.81048E+02</wgt>
<wgt id='2039'>0.81130E+02</wgt>
<wgt id='2040'>0.81037E+02</wgt>
<wgt id='2041'>0.81102E+02</wgt>
<wgt id='2042'>0.81156E+02</wgt>
<wgt id='2043'>0.81058E+02</wgt>
<wgt id='2044'>0.81167E+02</wgt>
<wgt id='2045'>0.81101E+02</wgt>
<wgt id='2046'>0.81103E+02</wgt>
<wgt id='2047'>0.81091E+02</wgt>
<wgt id='2048'>0.81062E+02</wgt>
<wgt id='2049'>0.81037E+02</wgt>
<wgt id='2050'>0.81070E+02</wgt>
<wgt id='2051'>0.81091E+02</wgt>
<wgt id='2052'>0.81171E+02</wgt>
<wgt id='2053'>0.81087E+02</wgt>
<wgt id='2054'>0.81098E+02</wgt>
<wgt id='2055'>0.81123E+02</wgt>
<wgt id='2056'>0.81059E+02</wgt>
<wgt id='2057'>0.81130E+02</wgt>
<wgt id='2058'>0.81114E+02</wgt>
<wgt id='2059'>0.81101E+02</wgt>
<wgt id='2060'>0.81105E+02</wgt>
<wgt id='2061'>0.81093E+02</wgt>
<wgt id='2062'>0.81167E+02</wgt>
<wgt id='2063'>0.81125E+02</wgt>
<wgt id='2064'>0.81120E+02</wgt>
<wgt id='2065'>0.81173E+02</wgt>
<wgt id='2066'>0.81099E+02</wgt>
<wgt id='2067'>0.81126E+02</wgt>
<wgt id='2068'>0.81120E+02</wgt>
<wgt id='2069'>0.81107E+02</wgt>
<wgt id='2070'>0.81113E+02</wgt>
<wgt id='2071'>0.81105E+02</wgt>
<wgt id='2072'>0.81103E+02</wgt>
<wgt id='2073'>0.81121E+02</wgt>
<wgt id='2074'>0.81089E+02</wgt>
<wgt id='2075'>0.81086E+02</wgt>
<wgt id='2076'>0.81092E+02</wgt>
<wgt id='2077'>0.81148E+02</wgt>
<wgt id='2078'>0.81113E+02</wgt>
<wgt id='2079'>0.81086E+02</wgt>
<wgt id='2080'>0.81113E+02</wgt>
<wgt id='2081'>0.81096E+02</wgt>
<wgt id='2082'>0.81115E+02</wgt>
<wgt id='2083'>0.81134E+02</wgt>
<wgt id='2084'>0.81110E+02</wgt>
<wgt id='2085'>0.81104E+02</wgt>
<wgt id='2086'>0.81093E+02</wgt>
<wgt id='2087'>0.81114E+02</wgt>
<wgt id='2088'>0.81098E+02</wgt>
<wgt id='2089'>0.81094E+02</wgt>
<wgt id='2090'>0.81118E+02</wgt>
<wgt id='2091'>0.81104E+02</wgt>
<wgt id='2092'>0.81124E+02</wgt>
<wgt id='2093'>0.81091E+02</wgt>
<wgt id='2094'>0.81108E+02</wgt>
<wgt id='2095'>0.81116E+02</wgt>
<wgt id='2096'>0.81094E+02</wgt>
<wgt id='2097'>0.81114E+02</wgt>
<wgt id='2098'>0.81101E+02</wgt>
<wgt id='2099'>0.81114E+02</wgt>
<wgt id='2100'>0.81104E+02</wgt>
<wgt id='2101'>0.78797E+02</wgt>
<wgt id='2102'>0.83475E+02</wgt>
<wgt id='2200'>0.81189E+02</wgt>
<wgt id='2201'>0.70411E+02</wgt>
<wgt id='2202'>0.72506E+02</wgt>
<wgt id='2203'>0.74710E+02</wgt>
<wgt id='2204'>0.76787E+02</wgt>
<wgt id='2205'>0.80174E+02</wgt>
<wgt id='2206'>0.82397E+02</wgt>
<wgt id='2207'>0.85443E+02</wgt>
<wgt id='2208'>0.87654E+02</wgt>
<wgt id='2300'>0.84768E+02</wgt>
<wgt id='2301'>0.84882E+02</wgt>
<wgt id='2302'>0.84673E+02</wgt>
<wgt id='2303'>0.84820E+02</wgt>
<wgt id='2304'>0.84994E+02</wgt>
<wgt id='2305'>0.84913E+02</wgt>
<wgt id='2306'>0.84732E+02</wgt>
<wgt id='2307'>0.84945E+02</wgt>
<wgt id='2308'>0.84701E+02</wgt>
<wgt id='2309'>0.84978E+02</wgt>
<wgt id='2310'>0.84625E+02</wgt>
<wgt id='2311'>0.84656E+02</wgt>
<wgt id='2312'>0.84919E+02</wgt>
<wgt id='2313'>0.84737E+02</wgt>
<wgt id='2314'>0.84881E+02</wgt>
<wgt id='2315'>0.84708E+02</wgt>
<wgt id='2316'>0.84800E+02</wgt>
<wgt id='2317'>0.84861E+02</wgt>
<wgt id='2318'>0.84906E+02</wgt>
<wgt id='2319'>0.84684E+02</wgt>
<wgt id='2320'>0.84706E+02</wgt>
<wgt id='2321'>0.84681E+02</wgt>
<wgt id='2322'>0.84761E+02</wgt>
<wgt id='2323'>0.84697E+02</wgt>
<wgt id='2324'>0.84677E+02</wgt>
<wgt id='2325'>0.84846E+02</wgt>
<wgt id='2326'>0.84769E+02</wgt>
<wgt id='2327'>0.84801E+02</wgt>
<wgt id='2328'>0.84598E+02</wgt>
<wgt id='2329'>0.84577E+02</wgt>
<wgt id='2330'>0.85179E+02</wgt>
<wgt id='2331'>0.84970E+02</wgt>
<wgt id='2332'>0.84789E+02</wgt>
<wgt id='2333'>0.84919E+02</wgt>
<wgt id='2334'>0.84777E+02</wgt>
<wgt id='2335'>0.85116E+02</wgt>
<wgt id='2336'>0.84864E+02</wgt>
<wgt id='2337'>0.84704E+02</wgt>
<wgt id='2338'>0.84779E+02</wgt>
<wgt id='2339'>0.84860E+02</wgt>
<wgt id='2340'>0.84625E+02</wgt>
<wgt id='2341'>0.84786E+02</wgt>
<wgt id='2342'>0.84697E+02</wgt>
<wgt id='2343'>0.84650E+02</wgt>
<wgt id='2344'>0.84831E+02</wgt>
<wgt id='2345'>0.84837E+02</wgt>
<wgt id='2346'>0.84865E+02</wgt>
<wgt id='2347'>0.84784E+02</wgt>
<wgt id='2348'>0.84751E+02</wgt>
<wgt id='2349'>0.84736E+02</wgt>
<wgt id='2350'>0.84679E+02</wgt>
<wgt id='2351'>0.84867E+02</wgt>
<wgt id='2352'>0.84711E+02</wgt>
<wgt id='2353'>0.84761E+02</wgt>
<wgt id='2354'>0.84794E+02</wgt>
<wgt id='2355'>0.84667E+02</wgt>
<wgt id='2356'>0.84791E+02</wgt>
<wgt id='2357'>0.84789E+02</wgt>
<wgt id='2358'>0.84692E+02</wgt>
<wgt id='2359'>0.84797E+02</wgt>
<wgt id='2360'>0.84810E+02</wgt>
<wgt id='2361'>0.84825E+02</wgt>
<wgt id='2362'>0.84808E+02</wgt>
<wgt id='2363'>0.84795E+02</wgt>
<wgt id='2364'>0.84738E+02</wgt>
<wgt id='2365'>0.84747E+02</wgt>
<wgt id='2366'>0.84796E+02</wgt>
<wgt id='2367'>0.84696E+02</wgt>
<wgt id='2368'>0.84803E+02</wgt>
<wgt id='2369'>0.84749E+02</wgt>
<wgt id='2370'>0.84769E+02</wgt>
<wgt id='2371'>0.84740E+02</wgt>
<wgt id='2372'>0.84772E+02</wgt>
<wgt id='2373'>0.84729E+02</wgt>
<wgt id='2374'>0.84794E+02</wgt>
<wgt id='2375'>0.84761E+02</wgt>
<wgt id='2376'>0.84767E+02</wgt>
<wgt id='2377'>0.84784E+02</wgt>
<wgt id='2378'>0.84787E+02</wgt>
<wgt id='2379'>0.84769E+02</wgt>
<wgt id='2380'>0.84761E+02</wgt>
<wgt id='2381'>0.84773E+02</wgt>
<wgt id='2382'>0.84760E+02</wgt>
<wgt id='2383'>0.84761E+02</wgt>
<wgt id='2384'>0.84751E+02</wgt>
<wgt id='2385'>0.84773E+02</wgt>
<wgt id='2386'>0.84740E+02</wgt>
<wgt id='2387'>0.84752E+02</wgt>
<wgt id='2388'>0.84765E+02</wgt>
<wgt id='2389'>0.84769E+02</wgt>
<wgt id='2390'>0.84774E+02</wgt>
<wgt id='2391'>0.84777E+02</wgt>
<wgt id='2392'>0.84774E+02</wgt>
<wgt id='2393'>0.84767E+02</wgt>
<wgt id='2394'>0.84785E+02</wgt>
<wgt id='2395'>0.84770E+02</wgt>
<wgt id='2396'>0.84768E+02</wgt>
<wgt id='2397'>0.84755E+02</wgt>
<wgt id='2398'>0.84769E+02</wgt>
<wgt id='2399'>0.84780E+02</wgt>
<wgt id='2400'>0.84770E+02</wgt>
<wgt id='2401'>0.82360E+02</wgt>
<wgt id='2402'>0.87093E+02</wgt>
<wgt id='2500'>0.81520E+02</wgt>
<wgt id='2501'>0.86411E+02</wgt>
<wgt id='2600'>0.78661E+02</wgt>
<wgt id='2601'>0.78629E+02</wgt>
<wgt id='2602'>0.78625E+02</wgt>
<wgt id='2603'>0.78626E+02</wgt>
<wgt id='2604'>0.78732E+02</wgt>
<wgt id='2605'>0.78545E+02</wgt>
<wgt id='2606'>0.78501E+02</wgt>
<wgt id='2607'>0.78787E+02</wgt>
<wgt id='2608'>0.78601E+02</wgt>
<wgt id='2609'>0.78594E+02</wgt>
<wgt id='2610'>0.78612E+02</wgt>
<wgt id='2611'>0.78595E+02</wgt>
<wgt id='2612'>0.78941E+02</wgt>
<wgt id='2613'>0.78631E+02</wgt>
<wgt id='2614'>0.78637E+02</wgt>
<wgt id='2615'>0.78514E+02</wgt>
<wgt id='2616'>0.78643E+02</wgt>
<wgt id='2617'>0.78516E+02</wgt>
<wgt id='2618'>0.78482E+02</wgt>
<wgt id='2619'>0.78713E+02</wgt>
<wgt id='2620'>0.78669E+02</wgt>
<wgt id='2621'>0.78657E+02</wgt>
<wgt id='2622'>0.78796E+02</wgt>
<wgt id='2623'>0.78659E+02</wgt>
<wgt id='2624'>0.78665E+02</wgt>
<wgt id='2625'>0.78604E+02</wgt>
<wgt id='2626'>0.78648E+02</wgt>
<wgt id='2627'>0.78639E+02</wgt>
<wgt id='2628'>0.78676E+02</wgt>
<wgt id='2629'>0.78663E+02</wgt>
<wgt id='2630'>0.78667E+02</wgt>
<wgt id='2631'>0.78619E+02</wgt>
<wgt id='2632'>0.78675E+02</wgt>
<wgt id='2633'>0.78645E+02</wgt>
<wgt id='2634'>0.78641E+02</wgt>
<wgt id='2635'>0.78658E+02</wgt>
<wgt id='2636'>0.78648E+02</wgt>
<wgt id='2637'>0.78666E+02</wgt>
<wgt id='2638'>0.78681E+02</wgt>
<wgt id='2639'>0.78663E+02</wgt>
<wgt id='2640'>0.78661E+02</wgt>
<wgt id='2641'>0.78675E+02</wgt>
<wgt id='2642'>0.78670E+02</wgt>
<wgt id='2643'>0.78665E+02</wgt>
<wgt id='2644'>0.78658E+02</wgt>
<wgt id='2645'>0.78663E+02</wgt>
<wgt id='2646'>0.78667E+02</wgt>
<wgt id='2647'>0.78663E+02</wgt>
<wgt id='2648'>0.78661E+02</wgt>
<wgt id='2649'>0.78664E+02</wgt>
<wgt id='2650'>0.78660E+02</wgt>
<wgt id='2651'>0.77231E+02</wgt>
<wgt id='2652'>0.79991E+02</wgt>
<wgt id='2700'>0.75850E+02</wgt>
<wgt id='2701'>0.77231E+02</wgt>
<wgt id='2702'>0.77998E+02</wgt>
<wgt id='2703'>0.79251E+02</wgt>
<wgt id='2704'>0.79991E+02</wgt>
<wgt id='2705'>0.81259E+02</wgt>
<wgt id='2800'>0.79948E+02</wgt>
<wgt id='4000'>0.79995E+02</wgt>
<wgt id='4001'>0.80346E+02</wgt>
<wgt id='4002'>0.79880E+02</wgt>
<wgt id='4003'>0.80443E+02</wgt>
<wgt id='4004'>0.79447E+02</wgt>
<wgt id='4005'>0.79631E+02</wgt>
<wgt id='4006'>0.80329E+02</wgt>
<wgt id='4007'>0.80977E+02</wgt>
<wgt id='4008'>0.79028E+02</wgt>
<wgt id='4009'>0.80458E+02</wgt>
<wgt id='4010'>0.79601E+02</wgt>
<wgt id='4011'>0.80286E+02</wgt>
<wgt id='4012'>0.79707E+02</wgt>
<wgt id='4013'>0.80525E+02</wgt>
<wgt id='4014'>0.79530E+02</wgt>
<wgt id='4015'>0.79627E+02</wgt>
<wgt id='4016'>0.80251E+02</wgt>
<wgt id='4017'>0.79905E+02</wgt>
<wgt id='4018'>0.80127E+02</wgt>
<wgt id='4019'>0.80542E+02</wgt>
<wgt id='4020'>0.79150E+02</wgt>
<wgt id='4021'>0.80061E+02</wgt>
<wgt id='4022'>0.79855E+02</wgt>
<wgt id='4023'>0.79796E+02</wgt>
<wgt id='4024'>0.80224E+02</wgt>
<wgt id='4025'>0.80237E+02</wgt>
<wgt id='4026'>0.79406E+02</wgt>
<wgt id='4027'>0.79889E+02</wgt>
<wgt id='4028'>0.80110E+02</wgt>
<wgt id='4029'>0.79301E+02</wgt>
<wgt id='4030'>0.79986E+02</wgt>
<wgt id='4031'>0.79839E+02</wgt>
<wgt id='4032'>0.79907E+02</wgt>
<wgt id='4033'>0.79960E+02</wgt>
<wgt id='4034'>0.79793E+02</wgt>
<wgt id='4035'>0.80996E+02</wgt>
<wgt id='4036'>0.79205E+02</wgt>
<wgt id='4037'>0.81257E+02</wgt>
<wgt id='4038'>0.78969E+02</wgt>
<wgt id='4039'>0.81318E+02</wgt>
<wgt id='4040'>0.78622E+02</wgt>
<wgt id='4041'>0.79924E+02</wgt>
<wgt id='4042'>0.79959E+02</wgt>
<wgt id='4043'>0.79051E+02</wgt>
<wgt id='4044'>0.80223E+02</wgt>
<wgt id='4045'>0.81617E+02</wgt>
<wgt id='4046'>0.79220E+02</wgt>
<wgt id='4047'>0.79009E+02</wgt>
<wgt id='4048'>0.80395E+02</wgt>
<wgt id='4049'>0.79881E+02</wgt>
<wgt id='4050'>0.80054E+02</wgt>
<wgt id='4051'>0.81107E+02</wgt>
<wgt id='4052'>0.78967E+02</wgt>
<wgt id='4053'>0.80708E+02</wgt>
<wgt id='4054'>0.78923E+02</wgt>
<wgt id='4055'>0.80394E+02</wgt>
<wgt id='4056'>0.79533E+02</wgt>
<wgt id='4057'>0.79203E+02</wgt>
<wgt id='4058'>0.80524E+02</wgt>
<wgt id='4100'>0.80667E+02</wgt>
<wgt id='4101'>0.80350E+02</wgt>
<wgt id='4102'>0.79609E+02</wgt>
<wgt id='4103'>0.79196E+02</wgt>
<wgt id='4200'>0.76895E+02</wgt>
<wgt id='4201'>0.77003E+02</wgt>
<wgt id='4202'>0.77005E+02</wgt>
<wgt id='4203'>0.76271E+02</wgt>
<wgt id='4204'>0.77389E+02</wgt>
<wgt id='4205'>0.76840E+02</wgt>
<wgt id='4206'>0.77065E+02</wgt>
<wgt id='4207'>0.76768E+02</wgt>
<wgt id='4208'>0.77015E+02</wgt>
<wgt id='4209'>0.77037E+02</wgt>
<wgt id='4210'>0.76904E+02</wgt>
<wgt id='4211'>0.77897E+02</wgt>
<wgt id='4212'>0.76102E+02</wgt>
<wgt id='4213'>0.77067E+02</wgt>
<wgt id='4214'>0.76621E+02</wgt>
<wgt id='4215'>0.76996E+02</wgt>
<wgt id='4216'>0.76535E+02</wgt>
<wgt id='4217'>0.76535E+02</wgt>
<wgt id='4218'>0.77159E+02</wgt>
<wgt id='4219'>0.75818E+02</wgt>
<wgt id='4220'>0.77875E+02</wgt>
<wgt id='4221'>0.76281E+02</wgt>
<wgt id='4222'>0.77596E+02</wgt>
<wgt id='4223'>0.77379E+02</wgt>
<wgt id='4224'>0.76199E+02</wgt>
<wgt id='4225'>0.75450E+02</wgt>
<wgt id='4226'>0.78238E+02</wgt>
<wgt id='4227'>0.77435E+02</wgt>
<wgt id='4228'>0.76434E+02</wgt>
<wgt id='4229'>0.76223E+02</wgt>
<wgt id='4230'>0.77343E+02</wgt>
<wgt id='4231'>0.76884E+02</wgt>
<wgt id='4232'>0.76844E+02</wgt>
<wgt id='4233'>0.77144E+02</wgt>
<wgt id='4234'>0.76451E+02</wgt>
<wgt id='4235'>0.77303E+02</wgt>
<wgt id='4236'>0.76543E+02</wgt>
<wgt id='4237'>0.77026E+02</wgt>
<wgt id='4238'>0.76538E+02</wgt>
<wgt id='4239'>0.77511E+02</wgt>
<wgt id='4240'>0.75552E+02</wgt>
<wgt id='4241'>0.76513E+02</wgt>
<wgt id='4242'>0.77300E+02</wgt>
<wgt id='4243'>0.76865E+02</wgt>
<wgt id='4244'>0.77112E+02</wgt>
<wgt id='4245'>0.76088E+02</wgt>
<wgt id='4246'>0.77652E+02</wgt>
<wgt id='4247'>0.76598E+02</wgt>
<wgt id='4248'>0.77029E+02</wgt>
<wgt id='4249'>0.78056E+02</wgt>
<wgt id='4250'>0.75525E+02</wgt>
<wgt id='4251'>0.76107E+02</wgt>
<wgt id='4252'>0.77308E+02</wgt>
<wgt id='4253'>0.76521E+02</wgt>
<wgt id='4254'>0.77116E+02</wgt>
<wgt id='4255'>0.77187E+02</wgt>
<wgt id='4256'>0.76624E+02</wgt>
<wgt id='4257'>0.75451E+02</wgt>
<wgt id='4258'>0.77312E+02</wgt>
<wgt id='4300'>0.79199E+02</wgt>
<wgt id='4301'>0.78330E+02</wgt>
<wgt id='5000'>0.79807E+02</wgt>
<wgt id='5001'>0.79845E+02</wgt>
<wgt id='5002'>0.79759E+02</wgt>
<wgt id='5003'>0.79826E+02</wgt>
<wgt id='5004'>0.79790E+02</wgt>
<wgt id='5005'>0.79812E+02</wgt>
<wgt id='5006'>0.79801E+02</wgt>
<wgt id='5007'>0.79869E+02</wgt>
<wgt id='5008'>0.79758E+02</wgt>
<wgt id='5009'>0.79918E+02</wgt>
<wgt id='5010'>0.79694E+02</wgt>
<wgt id='5011'>0.79987E+02</wgt>
<wgt id='5012'>0.79635E+02</wgt>
<wgt id='5013'>0.79925E+02</wgt>
<wgt id='5014'>0.79724E+02</wgt>
<wgt id='5015'>0.79405E+02</wgt>
<wgt id='5016'>0.79405E+02</wgt>
<wgt id='5017'>0.80256E+02</wgt>
<wgt id='5018'>0.79505E+02</wgt>
<wgt id='5019'>0.80118E+02</wgt>
<wgt id='5020'>0.79382E+02</wgt>
<wgt id='5021'>0.79903E+02</wgt>
<wgt id='5022'>0.79659E+02</wgt>
<wgt id='5023'>0.79715E+02</wgt>
<wgt id='5024'>0.80028E+02</wgt>
<wgt id='5025'>0.79506E+02</wgt>
<wgt id='5026'>0.80146E+02</wgt>
<wgt id='5027'>0.79845E+02</wgt>
<wgt id='5028'>0.79705E+02</wgt>
<wgt id='5029'>0.80494E+02</wgt>
<wgt id='5030'>0.79419E+02</wgt>
<wgt id='5031'>0.79463E+02</wgt>
<wgt id='5032'>0.80851E+02</wgt>
<wgt id='5033'>0.79805E+02</wgt>
<wgt id='5034'>0.79810E+02</wgt>
<wgt id='5035'>0.79812E+02</wgt>
<wgt id='5036'>0.79804E+02</wgt>
<wgt id='5037'>0.79687E+02</wgt>
<wgt id='5038'>0.79876E+02</wgt>
<wgt id='5039'>0.80017E+02</wgt>
<wgt id='5040'>0.79291E+02</wgt>
<wgt id='5041'>0.80030E+02</wgt>
<wgt id='5042'>0.79584E+02</wgt>
<wgt id='5043'>0.79927E+02</wgt>
<wgt id='5044'>0.79745E+02</wgt>
<wgt id='5045'>0.79665E+02</wgt>
<wgt id='5046'>0.80034E+02</wgt>
<wgt id='5047'>0.79849E+02</wgt>
<wgt id='5048'>0.79627E+02</wgt>
<wgt id='5049'>0.79772E+02</wgt>
<wgt id='5050'>0.79887E+02</wgt>
<wgt id='5051'>0.79945E+02</wgt>
<wgt id='5052'>0.79687E+02</wgt>
<wgt id='5053'>0.79693E+02</wgt>
<wgt id='5054'>0.79962E+02</wgt>
<wgt id='5055'>0.79869E+02</wgt>
<wgt id='5056'>0.79828E+02</wgt>
<wgt id='5057'>0.79551E+02</wgt>
<wgt id='5058'>0.79987E+02</wgt>
<wgt id='5059'>0.79781E+02</wgt>
<wgt id='5060'>0.79833E+02</wgt>
<wgt id='5061'>0.80051E+02</wgt>
<wgt id='5062'>0.79848E+02</wgt>
<wgt id='5063'>0.80096E+02</wgt>
<wgt id='5064'>0.79760E+02</wgt>
<wgt id='5100'>0.79807E+02</wgt>
<wgt id='5101'>0.79828E+02</wgt>
<wgt id='6000'>0.79766E+02</wgt>
<wgt id='6001'>0.79828E+02</wgt>
<wgt id='6002'>0.79803E+02</wgt>
<wgt id='6003'>0.79694E+02</wgt>
<wgt id='6004'>0.79760E+02</wgt>
<wgt id='6005'>0.79589E+02</wgt>
<wgt id='6006'>0.79988E+02</wgt>
<wgt id='6007'>0.79614E+02</wgt>
<wgt id='6008'>0.79176E+02</wgt>
<wgt id='6009'>0.79951E+02</wgt>
<wgt id='6010'>0.78653E+02</wgt>
<wgt id='6011'>0.79742E+02</wgt>
<wgt id='6012'>0.80004E+02</wgt>
<wgt id='6013'>0.79521E+02</wgt>
<wgt id='6014'>0.79644E+02</wgt>
<wgt id='6015'>0.79230E+02</wgt>
<wgt id='6016'>0.79870E+02</wgt>
<wgt id='6017'>0.79712E+02</wgt>
<wgt id='6018'>0.79562E+02</wgt>
<wgt id='6019'>0.79795E+02</wgt>
<wgt id='6020'>0.79904E+02</wgt>
<wgt id='6021'>0.79789E+02</wgt>
<wgt id='6022'>0.79808E+02</wgt>
<wgt id='6023'>0.79779E+02</wgt>
<wgt id='6024'>0.79835E+02</wgt>
<wgt id='6025'>0.80008E+02</wgt>
<wgt id='6026'>0.79769E+02</wgt>
<wgt id='6027'>0.79778E+02</wgt>
<wgt id='6028'>0.79612E+02</wgt>
<wgt id='6029'>0.79646E+02</wgt>
<wgt id='6030'>0.80060E+02</wgt>
<wgt id='6031'>0.79602E+02</wgt>
<wgt id='6032'>0.79789E+02</wgt>
<wgt id='6033'>0.79646E+02</wgt>
<wgt id='6034'>0.79984E+02</wgt>
<wgt id='6035'>0.79813E+02</wgt>
<wgt id='6036'>0.80222E+02</wgt>
<wgt id='6037'>0.79776E+02</wgt>
<wgt id='6038'>0.79814E+02</wgt>
<wgt id='6039'>0.79889E+02</wgt>
<wgt id='6040'>0.79755E+02</wgt>
<wgt id='6041'>0.78788E+02</wgt>
<wgt id='6042'>0.80844E+02</wgt>
<wgt id='7000'>0.79440E+02</wgt>
<wgt id='7001'>0.79220E+02</wgt>
<wgt id='7002'>0.79391E+02</wgt>
<wgt id='7003'>0.79288E+02</wgt>
<wgt id='7004'>0.79324E+02</wgt>
<wgt id='7005'>0.79418E+02</wgt>
<wgt id='7006'>0.79194E+02</wgt>
<wgt id='7007'>0.79808E+02</wgt>
<wgt id='7008'>0.78818E+02</wgt>
<wgt id='7009'>0.78988E+02</wgt>
<wgt id='7010'>0.79635E+02</wgt>
<wgt id='7011'>0.79582E+02</wgt>
<wgt id='7012'>0.79033E+02</wgt>
<wgt id='7013'>0.79170E+02</wgt>
<wgt id='7014'>0.79435E+02</wgt>
<wgt id='7015'>0.79222E+02</wgt>
<wgt id='7016'>0.79169E+02</wgt>
<wgt id='7017'>0.79324E+02</wgt>
<wgt id='7018'>0.79291E+02</wgt>
<wgt id='7019'>0.79177E+02</wgt>
<wgt id='7020'>0.79444E+02</wgt>
<wgt id='7021'>0.79403E+02</wgt>
<wgt id='7022'>0.79187E+02</wgt>
<wgt id='7023'>0.78972E+02</wgt>
<wgt id='7024'>0.79652E+02</wgt>
<wgt id='7025'>0.78380E+02</wgt>
<wgt id='7026'>0.80151E+02</wgt>
<wgt id='7027'>0.78946E+02</wgt>
<wgt id='7028'>0.79723E+02</wgt>
<wgt id='8000'>0.79848E+02</wgt>
<wgt id='8001'>0.79837E+02</wgt>
<wgt id='8002'>0.79872E+02</wgt>
<wgt id='8003'>0.79850E+02</wgt>
<wgt id='8004'>0.79846E+02</wgt>
<wgt id='8005'>0.79695E+02</wgt>
<wgt id='8006'>0.79923E+02</wgt>
<wgt id='8007'>0.79992E+02</wgt>
<wgt id='8008'>0.80029E+02</wgt>
<wgt id='8009'>0.80189E+02</wgt>
<wgt id='8010'>0.79763E+02</wgt>
<wgt id='8011'>0.79859E+02</wgt>
<wgt id='8012'>0.79556E+02</wgt>
<wgt id='8013'>0.79695E+02</wgt>
<wgt id='8014'>0.80027E+02</wgt>
<wgt id='8015'>0.79801E+02</wgt>
<wgt id='8016'>0.79921E+02</wgt>
<wgt id='8017'>0.79890E+02</wgt>
<wgt id='8018'>0.80035E+02</wgt>
<wgt id='8019'>0.79917E+02</wgt>
<wgt id='8020'>0.79776E+02</wgt>
<wgt id='8021'>0.79787E+02</wgt>
<wgt id='8022'>0.79711E+02</wgt>
<wgt id='8023'>0.79782E+02</wgt>
<wgt id='8024'>0.79644E+02</wgt>
<wgt id='8025'>0.79846E+02</wgt>
<wgt id='8026'>0.79964E+02</wgt>
<wgt id='8027'>0.79880E+02</wgt>
<wgt id='8028'>0.79908E+02</wgt>
<wgt id='8029'>0.79705E+02</wgt>
<wgt id='3000'>0.81104E+02</wgt>
<wgt id='3001'>0.80825E+02</wgt>
<wgt id='3002'>0.79941E+02</wgt>
<wgt id='3003'>0.80380E+02</wgt>
<wgt id='3004'>0.82035E+02</wgt>
<wgt id='3005'>0.81225E+02</wgt>
<wgt id='3006'>0.82992E+02</wgt>
<wgt id='3007'>0.80598E+02</wgt>
<wgt id='3008'>0.80375E+02</wgt>
<wgt id='3009'>0.81656E+02</wgt>
<wgt id='3010'>0.82867E+02</wgt>
<wgt id='3011'>0.81556E+02</wgt>
<wgt id='3012'>0.81577E+02</wgt>
<wgt id='3013'>0.80427E+02</wgt>
<wgt id='3014'>0.80586E+02</wgt>
<wgt id='3015'>0.81284E+02</wgt>
<wgt id='3016'>0.82040E+02</wgt>
<wgt id='3017'>0.82811E+02</wgt>
<wgt id='3018'>0.80957E+02</wgt>
<wgt id='3019'>0.79642E+02</wgt>
<wgt id='3020'>0.80629E+02</wgt>
<wgt id='3021'>0.79558E+02</wgt>
<wgt id='3022'>0.79295E+02</wgt>
<wgt id='3023'>0.79698E+02</wgt>
<wgt id='3024'>0.80299E+02</wgt>
<wgt id='3025'>0.79973E+02</wgt>
<wgt id='3026'>0.80578E+02</wgt>
<wgt id='3027'>0.79810E+02</wgt>
<wgt id='3028'>0.79732E+02</wgt>
<wgt id='3029'>0.82434E+02</wgt>
<wgt id='3030'>0.82575E+02</wgt>
<wgt id='3031'>0.81549E+02</wgt>
<wgt id='3032'>0.82403E+02</wgt>
<wgt id='3033'>0.80422E+02</wgt>
<wgt id='3034'>0.81615E+02</wgt>
<wgt id='3035'>0.81674E+02</wgt>
<wgt id='3036'>0.80760E+02</wgt>
<wgt id='3037'>0.80273E+02</wgt>
<wgt id='3038'>0.80776E+02</wgt>
<wgt id='3039'>0.81384E+02</wgt>
<wgt id='3040'>0.81248E+02</wgt>
<wgt id='3041'>0.81661E+02</wgt>
<wgt id='3042'>0.81099E+02</wgt>
<wgt id='3043'>0.81457E+02</wgt>
<wgt id='3044'>0.81239E+02</wgt>
<wgt id='3045'>0.81474E+02</wgt>
<wgt id='3046'>0.81781E+02</wgt>
<wgt id='3047'>0.79078E+02</wgt>
<wgt id='3048'>0.80005E+02</wgt>
<wgt id='3049'>0.81018E+02</wgt>
<wgt id='3050'>0.81653E+02</wgt>
<wgt id='3051'>0.81154E+02</wgt>
<wgt id='3052'>0.80064E+02</wgt>
<wgt id='3053'>0.80900E+02</wgt>
<wgt id='3054'>0.80756E+02</wgt>
<wgt id='3055'>0.80073E+02</wgt>
<wgt id='3056'>0.80917E+02</wgt>
<wgt id='3057'>0.80394E+02</wgt>
<wgt id='3058'>0.80065E+02</wgt>
<wgt id='3059'>0.82624E+02</wgt>
<wgt id='3060'>0.81137E+02</wgt>
<wgt id='3061'>0.80785E+02</wgt>
<wgt id='3062'>0.80811E+02</wgt>
<wgt id='3063'>0.79575E+02</wgt>
<wgt id='3064'>0.81168E+02</wgt>
<wgt id='3065'>0.80423E+02</wgt>
<wgt id='3066'>0.81788E+02</wgt>
<wgt id='3067'>0.79644E+02</wgt>
<wgt id='3068'>0.81701E+02</wgt>
<wgt id='3069'>0.81041E+02</wgt>
<wgt id='3070'>0.80166E+02</wgt>
<wgt id='3071'>0.82055E+02</wgt>
<wgt id='3072'>0.80397E+02</wgt>
<wgt id='3073'>0.82110E+02</wgt>
<wgt id='3074'>0.81825E+02</wgt>
<wgt id='3075'>0.82458E+02</wgt>
<wgt id='3076'>0.82769E+02</wgt>
<wgt id='3077'>0.80676E+02</wgt>
<wgt id='3078'>0.81032E+02</wgt>
<wgt id='3079'>0.81036E+02</wgt>
<wgt id='3080'>0.81604E+02</wgt>
<wgt id='3081'>0.79993E+02</wgt>
<wgt id='3082'>0.82040E+02</wgt>
<wgt id='3083'>0.81453E+02</wgt>
<wgt id='3084'>0.81140E+02</wgt>
<wgt id='3085'>0.80649E+02</wgt>
<wgt id='3086'>0.80214E+02</wgt>
<wgt id='3087'>0.81615E+02</wgt>
<wgt id='3088'>0.82670E+02</wgt>
<wgt id='3089'>0.84239E+02</wgt>
<wgt id='3090'>0.81631E+02</wgt>
<wgt id='3091'>0.80750E+02</wgt>
<wgt id='3092'>0.82508E+02</wgt>
<wgt id='3093'>0.81832E+02</wgt>
<wgt id='3094'>0.81333E+02</wgt>
<wgt id='3095'>0.81406E+02</wgt>
<wgt id='3096'>0.80333E+02</wgt>
<wgt id='3097'>0.80981E+02</wgt>
<wgt id='3098'>0.82151E+02</wgt>
<wgt id='3099'>0.80369E+02</wgt>
<wgt id='3100'>0.80752E+02</wgt>
<wgt id='3200'>0.78682E+02</wgt>
<wgt id='3201'>0.79189E+02</wgt>
<wgt id='3202'>0.77586E+02</wgt>
<wgt id='3203'>0.78762E+02</wgt>
<wgt id='3204'>0.77990E+02</wgt>
<wgt id='3205'>0.79234E+02</wgt>
<wgt id='3206'>0.79268E+02</wgt>
<wgt id='3207'>0.79511E+02</wgt>
<wgt id='3208'>0.79221E+02</wgt>
<wgt id='3209'>0.78489E+02</wgt>
<wgt id='3210'>0.78660E+02</wgt>
<wgt id='3211'>0.79472E+02</wgt>
<wgt id='3212'>0.77928E+02</wgt>
<wgt id='3213'>0.78439E+02</wgt>
<wgt id='3214'>0.78074E+02</wgt>
<wgt id='3215'>0.78748E+02</wgt>
<wgt id='3216'>0.79385E+02</wgt>
<wgt id='3217'>0.79011E+02</wgt>
<wgt id='3218'>0.78848E+02</wgt>
<wgt id='3219'>0.78658E+02</wgt>
<wgt id='3220'>0.78073E+02</wgt>
<wgt id='3221'>0.79323E+02</wgt>
<wgt id='3222'>0.79707E+02</wgt>
<wgt id='3223'>0.78770E+02</wgt>
<wgt id='3224'>0.78450E+02</wgt>
<wgt id='3225'>0.79349E+02</wgt>
<wgt id='3226'>0.78720E+02</wgt>
<wgt id='3227'>0.78009E+02</wgt>
<wgt id='3228'>0.77927E+02</wgt>
<wgt id='3229'>0.79171E+02</wgt>
<wgt id='3230'>0.79196E+02</wgt>
<wgt id='3231'>0.78893E+02</wgt>
<wgt id='3232'>0.79059E+02</wgt>
<wgt id='3233'>0.79183E+02</wgt>
<wgt id='3234'>0.78560E+02</wgt>
<wgt id='3235'>0.78273E+02</wgt>
<wgt id='3236'>0.77928E+02</wgt>
<wgt id='3237'>0.78479E+02</wgt>
<wgt id='3238'>0.78313E+02</wgt>
<wgt id='3239'>0.78322E+02</wgt>
<wgt id='3240'>0.78406E+02</wgt>
<wgt id='3241'>0.79449E+02</wgt>
<wgt id='3242'>0.78065E+02</wgt>
<wgt id='3243'>0.77871E+02</wgt>
<wgt id='3244'>0.78402E+02</wgt>
<wgt id='3245'>0.79076E+02</wgt>
<wgt id='3246'>0.77841E+02</wgt>
<wgt id='3247'>0.78675E+02</wgt>
<wgt id='3248'>0.78306E+02</wgt>
<wgt id='3249'>0.78173E+02</wgt>
<wgt id='3250'>0.79083E+02</wgt>
<wgt id='3251'>0.78587E+02</wgt>
<wgt id='3252'>0.78874E+02</wgt>
<wgt id='3253'>0.78533E+02</wgt>
<wgt id='3254'>0.78520E+02</wgt>
<wgt id='3255'>0.78545E+02</wgt>
<wgt id='3256'>0.78336E+02</wgt>
<wgt id='3257'>0.78528E+02</wgt>
<wgt id='3258'>0.78935E+02</wgt>
<wgt id='3259'>0.78672E+02</wgt>
<wgt id='3260'>0.78729E+02</wgt>
<wgt id='3261'>0.79068E+02</wgt>
<wgt id='3262'>0.78423E+02</wgt>
<wgt id='3263'>0.79294E+02</wgt>
<wgt id='3264'>0.78815E+02</wgt>
<wgt id='3265'>0.78961E+02</wgt>
<wgt id='3266'>0.78479E+02</wgt>
<wgt id='3267'>0.78501E+02</wgt>
<wgt id='3268'>0.79228E+02</wgt>
<wgt id='3269'>0.78852E+02</wgt>
<wgt id='3270'>0.79024E+02</wgt>
<wgt id='3271'>0.78925E+02</wgt>
<wgt id='3272'>0.79164E+02</wgt>
<wgt id='3273'>0.78624E+02</wgt>
<wgt id='3274'>0.78735E+02</wgt>
<wgt id='3275'>0.78925E+02</wgt>
<wgt id='3276'>0.78314E+02</wgt>
<wgt id='3277'>0.78162E+02</wgt>
<wgt id='3278'>0.78639E+02</wgt>
<wgt id='3279'>0.79283E+02</wgt>
<wgt id='3280'>0.78488E+02</wgt>
<wgt id='3281'>0.78917E+02</wgt>
<wgt id='3282'>0.78995E+02</wgt>
<wgt id='3283'>0.78883E+02</wgt>
<wgt id='3284'>0.78783E+02</wgt>
<wgt id='3285'>0.78082E+02</wgt>
<wgt id='3286'>0.78340E+02</wgt>
<wgt id='3287'>0.78415E+02</wgt>
<wgt id='3288'>0.79042E+02</wgt>
<wgt id='3289'>0.79873E+02</wgt>
<wgt id='3290'>0.79482E+02</wgt>
<wgt id='3291'>0.77317E+02</wgt>
<wgt id='3292'>0.77805E+02</wgt>
<wgt id='3293'>0.78459E+02</wgt>
<wgt id='3294'>0.77477E+02</wgt>
<wgt id='3295'>0.78165E+02</wgt>
<wgt id='3296'>0.79845E+02</wgt>
<wgt id='3297'>0.78456E+02</wgt>
<wgt id='3298'>0.78546E+02</wgt>
<wgt id='3299'>0.78357E+02</wgt>
<wgt id='3300'>0.79212E+02</wgt>
<wgt id='3301'>0.77231E+02</wgt>
<wgt id='3302'>0.79991E+02</wgt>
<wgt id='3400'>0.78678E+02</wgt>
<wgt id='3401'>0.78696E+02</wgt>
<wgt id='3402'>0.78055E+02</wgt>
<wgt id='3403'>0.79515E+02</wgt>
<wgt id='3404'>0.79944E+02</wgt>
<wgt id='3405'>0.79374E+02</wgt>
<wgt id='3406'>0.78969E+02</wgt>
<wgt id='3407'>0.78249E+02</wgt>
<wgt id='3408'>0.80092E+02</wgt>
<wgt id='3409'>0.79760E+02</wgt>
<wgt id='3410'>0.78853E+02</wgt>
<wgt id='3411'>0.79374E+02</wgt>
<wgt id='3412'>0.79427E+02</wgt>
<wgt id='3413'>0.78584E+02</wgt>
<wgt id='3414'>0.78317E+02</wgt>
<wgt id='3415'>0.78581E+02</wgt>
<wgt id='3416'>0.78170E+02</wgt>
<wgt id='3417'>0.78784E+02</wgt>
<wgt id='3418'>0.78078E+02</wgt>
<wgt id='3419'>0.78144E+02</wgt>
<wgt id='3420'>0.78883E+02</wgt>
<wgt id='3421'>0.78880E+02</wgt>
<wgt id='3422'>0.79183E+02</wgt>
<wgt id='3423'>0.79254E+02</wgt>
<wgt id='3424'>0.79103E+02</wgt>
<wgt id='3425'>0.78516E+02</wgt>
<wgt id='3426'>0.78854E+02</wgt>
<wgt id='3427'>0.78611E+02</wgt>
<wgt id='3428'>0.79519E+02</wgt>
<wgt id='3429'>0.78040E+02</wgt>
<wgt id='3430'>0.79014E+02</wgt>
<wgt id='3431'>0.78727E+02</wgt>
<wgt id='3432'>0.78714E+02</wgt>
<wgt id='3433'>0.77491E+02</wgt>
<wgt id='3434'>0.78806E+02</wgt>
<wgt id='3435'>0.78956E+02</wgt>
<wgt id='3436'>0.78654E+02</wgt>
<wgt id='3437'>0.78731E+02</wgt>
<wgt id='3438'>0.77926E+02</wgt>
<wgt id='3439'>0.78940E+02</wgt>
<wgt id='3440'>0.78794E+02</wgt>
<wgt id='3441'>0.78597E+02</wgt>
<wgt id='3442'>0.77254E+02</wgt>
<wgt id='3443'>0.78598E+02</wgt>
<wgt id='3444'>0.78412E+02</wgt>
<wgt id='3445'>0.78331E+02</wgt>
<wgt id='3446'>0.79158E+02</wgt>
<wgt id='3447'>0.79781E+02</wgt>
<wgt id='3448'>0.79425E+02</wgt>
<wgt id='3449'>0.79397E+02</wgt>
<wgt id='3450'>0.78656E+02</wgt>
<wgt id='3451'>0.79609E+02</wgt>
<wgt id='3452'>0.78394E+02</wgt>
<wgt id='3453'>0.77897E+02</wgt>
<wgt id='3454'>0.77960E+02</wgt>
<wgt id='3455'>0.79607E+02</wgt>
<wgt id='3456'>0.78943E+02</wgt>
<wgt id='3457'>0.79641E+02</wgt>
<wgt id='3458'>0.78787E+02</wgt>
<wgt id='3459'>0.78505E+02</wgt>
<wgt id='3460'>0.78461E+02</wgt>
<wgt id='3461'>0.77985E+02</wgt>
<wgt id='3462'>0.78372E+02</wgt>
<wgt id='3463'>0.77813E+02</wgt>
<wgt id='3464'>0.79130E+02</wgt>
<wgt id='3465'>0.78725E+02</wgt>
<wgt id='3466'>0.79014E+02</wgt>
<wgt id='3467'>0.78384E+02</wgt>
<wgt id='3468'>0.77898E+02</wgt>
<wgt id='3469'>0.78669E+02</wgt>
<wgt id='3470'>0.78582E+02</wgt>
<wgt id='3471'>0.78537E+02</wgt>
<wgt id='3472'>0.77983E+02</wgt>
<wgt id='3473'>0.79156E+02</wgt>
<wgt id='3474'>0.78516E+02</wgt>
<wgt id='3475'>0.78678E+02</wgt>
<wgt id='3476'>0.78753E+02</wgt>
<wgt id='3477'>0.78001E+02</wgt>
<wgt id='3478'>0.79277E+02</wgt>
<wgt id='3479'>0.79328E+02</wgt>
<wgt id='3480'>0.78251E+02</wgt>
<wgt id='3481'>0.78889E+02</wgt>
<wgt id='3482'>0.78511E+02</wgt>
<wgt id='3483'>0.77587E+02</wgt>
<wgt id='3484'>0.78461E+02</wgt>
<wgt id='3485'>0.78373E+02</wgt>
<wgt id='3486'>0.77279E+02</wgt>
<wgt id='3487'>0.78944E+02</wgt>
<wgt id='3488'>0.79305E+02</wgt>
<wgt id='3489'>0.77857E+02</wgt>
<wgt id='3490'>0.79170E+02</wgt>
<wgt id='3491'>0.78798E+02</wgt>
<wgt id='3492'>0.78932E+02</wgt>
<wgt id='3493'>0.78301E+02</wgt>
<wgt id='3494'>0.76769E+02</wgt>
<wgt id='3495'>0.78808E+02</wgt>
<wgt id='3496'>0.77695E+02</wgt>
<wgt id='3497'>0.78164E+02</wgt>
<wgt id='3498'>0.79012E+02</wgt>
<wgt id='3499'>0.78588E+02</wgt>
<wgt id='3500'>0.79328E+02</wgt>
</rwgt>
</event>
<event>
     13 322200  8.11039E+01  3.18535E+01 -1.00000E+00  1.48870E-01
      21    -1     0     0   503   504  0.000000000E+00  0.000000000E+00  4.686300147E+02  4.686300147E+02  0.000000000E+00  0.00000E+00  9.000E+00
      21    -1     0     0   504   505  0.000000000E+00  0.000000000E+00 -2.457919858E+02  2.457919858E+02  0.000000000E+00  0.00000E+00  9.000E+00
       6     2     1     2   502     0  1.541864540E+02 -1.204795963E+02  1.935478843E+02  3.263068847E+02  1.752900560E+02  0.00000E+00  9.000E+00
      -6     2     1     2     0   505 -1.480298429E+02  8.922672826E+01 -9.335275878E+01  2.614031300E+02  1.724604748E+02  0.00000E+00  9.000E+00
      21     1     1     2   503   502 -6.156611107E+00  3.125286809E+01  1.226429033E+02  1.267119858E+02  0.000000000E+00  0.00000E+00  9.000E+00
      24     2     3     3     0     0  2.929178145E+01 -1.063924102E+02  9.131696661E+01  1.642146511E+02  8.031382088E+01  0.00000E+00  9.000E+00
       5     1     3     3   502     0  1.248946726E+02 -1.408718610E+01  1.022309177E+02  1.620922336E+02  5.060000000E+00  0.00000E+00 -1.000E+00
     -24     2     4     4     0     0 -1.554220853E+02  7.180763625E+01 -1.232319619E+02  2.256758240E+02  8.019413873E+01  0.00000E+00  9.000E+00
      -5     1     4     4     0   505  7.392242429E+00  1.741909202E+01  2.987920308E+01  3.572730597E+01  5.060000000E+00  0.00000E+00  1.000E+00
     -13     1     6     6     0     0  1.398521110E+01 -2.712776956E+01  7.619653646E+01  8.208182108E+01  1.057000000E-01  0.00000E+00  1.000E+00
      14     1     6     6     0     0  1.530657035E+01 -7.926464068E+01  1.512043015E+01  8.213283001E+01  0.000000000E+00  0.00000E+00 -1.000E+00
      13     1     8     8     0     0 -1.553471493E+02  6.330923370E+01 -8.799909996E+01  1.894324382E+02  1.057000000E-01  0.00000E+00 -1.000E+00
     -14     1     8     8     0     0 -7.493607592E-02  8.498402545E+00 -3.523286191E+01  3.624338587E+01  0.000000000E+00  0.00000E+00  1.000E+00
#rwgt            1           1   839.05257396223158               10       22088           0
<rwgt>
<wgt id='1001'>0.81104E+02</wgt>
<wgt id='1002'>0.88675E+02</wgt>
<wgt id='1003'>0.72494E+02</wgt>
<wgt id='1004'>0.68831E+02</wgt>
<wgt id='1005'>0.74282E+02</wgt>
<wgt id='1006'>0.62609E+02</wgt>
<wgt id='1007'>0.97070E+02</wgt>
<wgt id='1008'>0.10780E+03</wgt>
<wgt id='1009'>0.84908E+02</wgt>
<wgt id='2000'>0.81104E+02</wgt>
<wgt id='2001'>0.81238E+02</wgt>
<wgt id='2002'>0.80889E+02</wgt>
<wgt id='2003'>0.80988E+02</wgt>
<wgt id='2004'>0.81264E+02</wgt>
<wgt id='2005'>0.81201E+02</wgt>
<wgt id='2006'>0.81302E+02</wgt>
<wgt id='2007'>0.81224E+02</wgt>
<wgt id='2008'>0.81474E+02</wgt>
<wgt id='2009'>0.81006E+02</wgt>
<wgt id='2010'>0.81104E+02</wgt>
<wgt id='2011'>0.80819E+02</wgt>
<wgt id='2012'>0.81251E+02</wgt>
<wgt id='2013'>0.81303E+02</wgt>
<wgt id='2014'>0.81455E+02</wgt>
<wgt id='2015'>0.81310E+02</wgt>
<wgt id='2016'>0.81166E+02</wgt>
<wgt id='2017'>0.81149E+02</wgt>
<wgt id='2018'>0.80842E+02</wgt>
<wgt id='2019'>0.81517E+02</wgt>
<wgt id='2020'>0.80848E+02</wgt>
<wgt id='2021'>0.80987E+02</wgt>
<wgt id='2022'>0.80850E+02</wgt>
<wgt id='2023'>0.81012E+02</wgt>
<wgt id='2024'>0.81096E+02</wgt>
<wgt id='2025'>0.81123E+02</wgt>
<wgt id='2026'>0.80995E+02</wgt>
<wgt id='2027'>0.80785E+02</wgt>
<wgt id='2028'>0.81251E+02</wgt>
<wgt id='2029'>0.80787E+02</wgt>
<wgt id='2030'>0.81055E+02</wgt>
<wgt id='2031'>0.80826E+02</wgt>
<wgt id='2032'>0.81110E+02</wgt>
<wgt id='2033'>0.81005E+02</wgt>
<wgt id='2034'>0.80973E+02</wgt>
<wgt id='2035'>0.81120E+02</wgt>
<wgt id='2036'>0.81269E+02</wgt>
<wgt id='2037'>0.81084E+02</wgt>
<wgt id='2038'>0.81062E+02</wgt>
<wgt id='2039'>0.81107E+02</wgt>
<wgt id='2040'>0.81060E+02</wgt>
<wgt id='2041'>0.81106E+02</wgt>
<wgt id='2042'>0.81144E+02</wgt>
<wgt id='2043'>0.81047E+02</wgt>
<wgt id='2044'>0.81173E+02</wgt>
<wgt id='2045'>0.81114E+02</wgt>
<wgt id='2046'>0.81121E+02</wgt>
<wgt id='2047'>0.81084E+02</wgt>
<wgt id='2048'>0.81069E+02</wgt>
<wgt id='2049'>0.81044E+02</wgt>
<wgt id='2050'>0.81075E+02</wgt>
<wgt id='2051'>0.81105E+02</wgt>
<wgt id='2052'>0.81173E+02</wgt>
<wgt id='2053'>0.81092E+02</wgt>
<wgt id='2054'>0.81099E+02</wgt>
<wgt id='2055'>0.81120E+02</wgt>
<wgt id='2056'>0.81068E+02</wgt>
<wgt id='2057'>0.81134E+02</wgt>
<wgt id='2058'>0.81120E+02</wgt>
<wgt id='2059'>0.81118E+02</wgt>
<wgt id='2060'>0.81106E+02</wgt>
<wgt id='2061'>0.81086E+02</wgt>
<wgt id='2062'>0.81169E+02</wgt>
<wgt id='2063'>0.81124E+02</wgt>
<wgt id='2064'>0.81118E+02</wgt>
<wgt id='2065'>0.81177E+02</wgt>
<wgt id='2066'>0.81105E+02</wgt>
<wgt id='2067'>0.81126E+02</wgt>
<wgt id='2068'>0.81121E+02</wgt>
<wgt id='2069'>0.81106E+02</wgt>
<wgt id='2070'>0.81113E+02</wgt>
<wgt id='2071'>0.81106E+02</wgt>
<wgt id='2072'>0.81108E+02</wgt>
<wgt id='2073'>0.81123E+02</wgt>
<wgt id='2074'>0.81082E+02</wgt>
<wgt id='2075'>0.81091E+02</wgt>
<wgt id='2076'>0.81089E+02</wgt>
<wgt id='2077'>0.81149E+02</wgt>
<wgt id='2078'>0.81113E+02</wgt>
<wgt id='2079'>0.81085E+02</wgt>
<wgt id='2080'>0.81109E+02</wgt>
<wgt id='2081'>0.81092E+02</wgt>
<wgt id='2082'>0.81112E+02</wgt>
<wgt id='2083'>0.81134E+02</wgt>
<wgt id='2084'>0.81109E+02</wgt>
<wgt id='2085'>0.81103E+02</wgt>
<wgt id='2086'>0.81093E+02</wgt>
<wgt id='2087'>0.81111E+02</wgt>
<wgt id='2088'>0.81096E+02</wgt>
<wgt id='2089'>0.81095E+02</wgt>
<wgt id='2090'>0.81120E+02</wgt>
<wgt id='2091'>0.81104E+02</wgt>
<wgt id='2092'>0.81121E+02</wgt>
<wgt id='2093'>0.81088E+02</wgt>
<wgt id='2094'>0.81108E+02</wgt>
<wgt id='2095'>0.81116E+02</wgt>
<wgt id='2096'>0.81093E+02</wgt>
<wgt id='2097'>0.81113E+02</wgt>
<wgt id='2098'>0.81100E+02</wgt>
<wgt id='2099'>0.81115E+02</wgt>
<wgt id='2100'>0.81104E+02</wgt>
<wgt id='2101'>0.78777E+02</wgt>
<wgt id='2102'>0.83445E+02</wgt>
<wgt id='2200'>0.81185E+02</wgt>
<wgt id='2201'>0.70567E+02</wgt>
<wgt id='2202'>0.72559E+02</wgt>
<wgt id='2203'>0.74992E+02</wgt>
<wgt id='2204'>0.77144E+02</wgt>
<wgt id='2205'>0.80189E+02</wgt>
<wgt id='2206'>0.82437E+02</wgt>
<wgt id='2207'>0.85222E+02</wgt>
<wgt id='2208'>0.87439E+02</wgt>
<wgt id='2300'>0.84697E+02</wgt>
<wgt id='2301'>0.84763E+02</wgt>
<wgt id='2302'>0.84694E+02</wgt>
<wgt id='2303'>0.84752E+02</wgt>
<wgt id='2304'>0.84860E+02</wgt>
<wgt id='2305'>0.84886E+02</wgt>
<wgt id='2306'>0.84665E+02</wgt>
<wgt id='2307'>0.84947E+02</wgt>
<wgt id='2308'>0.84658E+02</wgt>
<wgt id='2309'>0.84965E+02</wgt>
<wgt id='2310'>0.84575E+02</wgt>
<wgt id='2311'>0.84533E+02</wgt>
<wgt id='2312'>0.84815E+02</wgt>
<wgt id='2313'>0.84780E+02</wgt>
<wgt id='2314'>0.84839E+02</wgt>
<wgt id='2315'>0.84520E+02</wgt>
<wgt id='2316'>0.84747E+02</wgt>
<wgt id='2317'>0.84823E+02</wgt>
<wgt id='2318'>0.84947E+02</wgt>
<wgt id='2319'>0.84475E+02</wgt>
<wgt id='2320'>0.84402E+02</wgt>
<wgt id='2321'>0.84349E+02</wgt>
<wgt id='2322'>0.84678E+02</wgt>
<wgt id='2323'>0.84461E+02</wgt>
<wgt id='2324'>0.84316E+02</wgt>
<wgt id='2325'>0.84721E+02</wgt>
<wgt id='2326'>0.84951E+02</wgt>
<wgt id='2327'>0.84716E+02</wgt>
<wgt id='2328'>0.84250E+02</wgt>
<wgt id='2329'>0.84502E+02</wgt>
<wgt id='2330'>0.84938E+02</wgt>
<wgt id='2331'>0.84812E+02</wgt>
<wgt id='2332'>0.84869E+02</wgt>
<wgt id='2333'>0.84904E+02</wgt>
<wgt id='2334'>0.84784E+02</wgt>
<wgt id='2335'>0.84859E+02</wgt>
<wgt id='2336'>0.84740E+02</wgt>
<wgt id='2337'>0.84710E+02</wgt>
<wgt id='2338'>0.84709E+02</wgt>
<wgt id='2339'>0.84609E+02</wgt>
<wgt id='2340'>0.84736E+02</wgt>
<wgt id='2341'>0.84766E+02</wgt>
<wgt id='2342'>0.84569E+02</wgt>
<wgt id='2343'>0.84583E+02</wgt>
<wgt id='2344'>0.84715E+02</wgt>
<wgt id='2345'>0.84779E+02</wgt>
<wgt id='2346'>0.84768E+02</wgt>
<wgt id='2347'>0.84674E+02</wgt>
<wgt id='2348'>0.84777E+02</wgt>
<wgt id='2349'>0.84679E+02</wgt>
<wgt id='2350'>0.84696E+02</wgt>
<wgt id='2351'>0.84816E+02</wgt>
<wgt id='2352'>0.84660E+02</wgt>
<wgt id='2353'>0.84662E+02</wgt>
<wgt id='2354'>0.84679E+02</wgt>
<wgt id='2355'>0.84666E+02</wgt>
<wgt id='2356'>0.84710E+02</wgt>
<wgt id='2357'>0.84646E+02</wgt>
<wgt id='2358'>0.84663E+02</wgt>
<wgt id='2359'>0.84690E+02</wgt>
<wgt id='2360'>0.84714E+02</wgt>
<wgt id='2361'>0.84706E+02</wgt>
<wgt id='2362'>0.84699E+02</wgt>
<wgt id='2363'>0.84729E+02</wgt>
<wgt id='2364'>0.84683E+02</wgt>
<wgt id='2365'>0.84709E+02</wgt>
<wgt id='2366'>0.84710E+02</wgt>
<wgt id='2367'>0.84667E+02</wgt>
<wgt id='2368'>0.84699E+02</wgt>
<wgt id='2369'>0.84666E+02</wgt>
<wgt id='2370'>0.84690E+02</wgt>
<wgt id='2371'>0.84699E+02</wgt>
<wgt id='2372'>0.84708E+02</wgt>
<wgt id='2373'>0.84685E+02</wgt>
<wgt id='2374'>0.84737E+02</wgt>
<wgt id='2375'>0.84705E+02</wgt>
<wgt id='2376'>0.84700E+02</wgt>
<wgt id='2377'>0.84701E+02</wgt>
<wgt id='2378'>0.84720E+02</wgt>
<wgt id='2379'>0.84679E+02</wgt>
<wgt id='2380'>0.84682E+02</wgt>
<wgt id='2381'>0.84692E+02</wgt>
<wgt id='2382'>0.84679E+02</wgt>
<wgt id='2383'>0.84703E+02</wgt>
<wgt id='2384'>0.84691E+02</wgt>
<wgt id='2385'>0.84708E+02</wgt>
<wgt id='2386'>0.84695E+02</wgt>
<wgt id='2387'>0.84690E+02</wgt>
<wgt id='2388'>0.84689E+02</wgt>
<wgt id='2389'>0.84698E+02</wgt>
<wgt id='2390'>0.84701E+02</wgt>
<wgt id='2391'>0.84695E+02</wgt>
<wgt id='2392'>0.84692E+02</wgt>
<wgt id='2393'>0.84701E+02</wgt>
<wgt id='2394'>0.84712E+02</wgt>
<wgt id='2395'>0.84701E+02</wgt>
<wgt id='2396'>0.84686E+02</wgt>
<wgt id='2397'>0.84682E+02</wgt>
<wgt id='2398'>0.84690E+02</wgt>
<wgt id='2399'>0.84708E+02</wgt>
<wgt id='2400'>0.84703E+02</wgt>
<wgt id='2401'>0.82330E+02</wgt>
<wgt id='2402'>0.87080E+02</wgt>
<wgt id='2500'>0.81140E+02</wgt>
<wgt id='2501'>0.86041E+02</wgt>
<wgt id='2600'>0.78095E+02</wgt>
<wgt id='2601'>0.78132E+02</wgt>
<wgt id='2602'>0.77987E+02</wgt>
<wgt id='2603'>0.78053E+02</wgt>
<wgt id='2604'>0.78117E+02</wgt>
<wgt id='2605'>0.77972E+02</wgt>
<wgt id='2606'>0.77900E+02</wgt>
<wgt id='2607'>0.78215E+02</wgt>
<wgt id='2608'>0.77997E+02</wgt>
<wgt id='2609'>0.78009E+02</wgt>
<wgt id='2610'>0.78050E+02</wgt>
<wgt id='2611'>0.78007E+02</wgt>
<wgt id='2612'>0.78468E+02</wgt>
<wgt id='2613'>0.78047E+02</wgt>
<wgt id='2614'>0.78079E+02</wgt>
<wgt id='2615'>0.77942E+02</wgt>
<wgt id='2616'>0.78050E+02</wgt>
<wgt id='2617'>0.77950E+02</wgt>
<wgt id='2618'>0.77858E+02</wgt>
<wgt id='2619'>0.78143E+02</wgt>
<wgt id='2620'>0.78134E+02</wgt>
<wgt id='2621'>0.78051E+02</wgt>
<wgt id='2622'>0.78148E+02</wgt>
<wgt id='2623'>0.78090E+02</wgt>
<wgt id='2624'>0.78113E+02</wgt>
<wgt id='2625'>0.78023E+02</wgt>
<wgt id='2626'>0.78082E+02</wgt>
<wgt id='2627'>0.78047E+02</wgt>
<wgt id='2628'>0.78116E+02</wgt>
<wgt id='2629'>0.78090E+02</wgt>
<wgt id='2630'>0.78070E+02</wgt>
<wgt id='2631'>0.78117E+02</wgt>
<wgt id='2632'>0.78094E+02</wgt>
<wgt id='2633'>0.78104E+02</wgt>
<wgt id='2634'>0.78122E+02</wgt>
<wgt id='2635'>0.78086E+02</wgt>
<wgt id='2636'>0.78090E+02</wgt>
<wgt id='2637'>0.78086E+02</wgt>
<wgt id='2638'>0.78091E+02</wgt>
<wgt id='2639'>0.78093E+02</wgt>
<wgt id='2640'>0.78101E+02</wgt>
<wgt id='2641'>0.78089E+02</wgt>
<wgt id='2642'>0.78091E+02</wgt>
<wgt id='2643'>0.78103E+02</wgt>
<wgt id='2644'>0.78094E+02</wgt>
<wgt id='2645'>0.78091E+02</wgt>
<wgt id='2646'>0.78074E+02</wgt>
<wgt id='2647'>0.78102E+02</wgt>
<wgt id='2648'>0.78100E+02</wgt>
<wgt id='2649'>0.78101E+02</wgt>
<wgt id='2650'>0.78096E+02</wgt>
<wgt id='2651'>0.76666E+02</wgt>
<wgt id='2652'>0.79449E+02</wgt>
<wgt id='2700'>0.75281E+02</wgt>
<wgt id='2701'>0.76666E+02</wgt>
<wgt id='2702'>0.77421E+02</wgt>
<wgt id='2703'>0.78651E+02</wgt>
<wgt id='2704'>0.79449E+02</wgt>
<wgt id='2705'>0.80690E+02</wgt>
<wgt id='2800'>0.79351E+02</wgt>
<wgt id='4000'>0.79528E+02</wgt>
<wgt id='4001'>0.79922E+02</wgt>
<wgt id='4002'>0.79429E+02</wgt>
<wgt id='4003'>0.80075E+02</wgt>
<wgt id='4004'>0.78919E+02</wgt>
<wgt id='4005'>0.79144E+02</wgt>
<wgt id='4006'>0.79885E+02</wgt>
<wgt id='4007'>0.80581E+02</wgt>
<wgt id='4008'>0.78497E+02</wgt>
<wgt id='4009'>0.80165E+02</wgt>
<wgt id='4010'>0.79006E+02</wgt>
<wgt id='4011'>0.79790E+02</wgt>
<wgt id='4012'>0.79282E+02</wgt>
<wgt id='4013'>0.80208E+02</wgt>
<wgt id='4014'>0.78928E+02</wgt>
<wgt id='4015'>0.79164E+02</wgt>
<wgt id='4016'>0.79765E+02</wgt>
<wgt id='4017'>0.79425E+02</wgt>
<wgt id='4018'>0.79681E+02</wgt>
<wgt id='4019'>0.80161E+02</wgt>
<wgt id='4020'>0.78571E+02</wgt>
<wgt id='4021'>0.79594E+02</wgt>
<wgt id='4022'>0.79389E+02</wgt>
<wgt id='4023'>0.79319E+02</wgt>
<wgt id='4024'>0.79743E+02</wgt>
<wgt id='4025'>0.79797E+02</wgt>
<wgt id='4026'>0.78859E+02</wgt>
<wgt id='4027'>0.79360E+02</wgt>
<wgt id='4028'>0.79735E+02</wgt>
<wgt id='4029'>0.78606E+02</wgt>
<wgt id='4030'>0.79715E+02</wgt>
<wgt id='4031'>0.79370E+02</wgt>
<wgt id='4032'>0.79384E+02</wgt>
<wgt id='4033'>0.79456E+02</wgt>
<wgt id='4034'>0.79360E+02</wgt>
<wgt id='4035'>0.80699E+02</wgt>
<wgt id='4036'>0.78639E+02</wgt>
<wgt id='4037'>0.80736E+02</wgt>
<wgt id='4038'>0.78539E+02</wgt>
<wgt id='4039'>0.80833E+02</wgt>
<wgt id='4040'>0.78177E+02</wgt>
<wgt id='4041'>0.79354E+02</wgt>
<wgt id='4042'>0.79588E+02</wgt>
<wgt id='4043'>0.78369E+02</wgt>
<wgt id='4044'>0.79976E+02</wgt>
<wgt id='4045'>0.81340E+02</wgt>
<wgt id='4046'>0.78694E+02</wgt>
<wgt id='4047'>0.78345E+02</wgt>
<wgt id='4048'>0.80048E+02</wgt>
<wgt id='4049'>0.79408E+02</wgt>
<wgt id='4050'>0.79628E+02</wgt>
<wgt id='4051'>0.80678E+02</wgt>
<wgt id='4052'>0.78451E+02</wgt>
<wgt id='4053'>0.80464E+02</wgt>
<wgt id='4054'>0.78274E+02</wgt>
<wgt id='4055'>0.79972E+02</wgt>
<wgt id='4056'>0.79043E+02</wgt>
<wgt id='4057'>0.78705E+02</wgt>
<wgt id='4058'>0.80062E+02</wgt>
<wgt id='4100'>0.80151E+02</wgt>
<wgt id='4101'>0.79865E+02</wgt>
<wgt id='4102'>0.79149E+02</wgt>
<wgt id='4103'>0.78738E+02</wgt>
<wgt id='4200'>0.76021E+02</wgt>
<wgt id='4201'>0.76179E+02</wgt>
<wgt id='4202'>0.76136E+02</wgt>
<wgt id='4203'>0.75332E+02</wgt>
<wgt id='4204'>0.76580E+02</wgt>
<wgt id='4205'>0.75952E+02</wgt>
<wgt id='4206'>0.76223E+02</wgt>
<wgt id='4207'>0.75821E+02</wgt>
<wgt id='4208'>0.76232E+02</wgt>
<wgt id='4209'>0.76252E+02</wgt>
<wgt id='4210'>0.76001E+02</wgt>
<wgt id='4211'>0.77095E+02</wgt>
<wgt id='4212'>0.75181E+02</wgt>
<wgt id='4213'>0.76202E+02</wgt>
<wgt id='4214'>0.75751E+02</wgt>
<wgt id='4215'>0.76162E+02</wgt>
<wgt id='4216'>0.75580E+02</wgt>
<wgt id='4217'>0.75620E+02</wgt>
<wgt id='4218'>0.76323E+02</wgt>
<wgt id='4219'>0.74827E+02</wgt>
<wgt id='4220'>0.77128E+02</wgt>
<wgt id='4221'>0.75398E+02</wgt>
<wgt id='4222'>0.76741E+02</wgt>
<wgt id='4223'>0.76653E+02</wgt>
<wgt id='4224'>0.75211E+02</wgt>
<wgt id='4225'>0.74499E+02</wgt>
<wgt id='4226'>0.77448E+02</wgt>
<wgt id='4227'>0.76628E+02</wgt>
<wgt id='4228'>0.75513E+02</wgt>
<wgt id='4229'>0.75367E+02</wgt>
<wgt id='4230'>0.76460E+02</wgt>
<wgt id='4231'>0.76047E+02</wgt>
<wgt id='4232'>0.75924E+02</wgt>
<wgt id='4233'>0.76334E+02</wgt>
<wgt id='4234'>0.75526E+02</wgt>
<wgt id='4235'>0.76405E+02</wgt>
<wgt id='4236'>0.75725E+02</wgt>
<wgt id='4237'>0.76014E+02</wgt>
<wgt id='4238'>0.75813E+02</wgt>
<wgt id='4239'>0.76799E+02</wgt>
<wgt id='4240'>0.74502E+02</wgt>
<wgt id='4241'>0.75604E+02</wgt>
<wgt id='4242'>0.76472E+02</wgt>
<wgt id='4243'>0.75955E+02</wgt>
<wgt id='4244'>0.76333E+02</wgt>
<wgt id='4245'>0.75149E+02</wgt>
<wgt id='4246'>0.76862E+02</wgt>
<wgt id='4247'>0.75740E+02</wgt>
<wgt id='4248'>0.76142E+02</wgt>
<wgt id='4249'>0.77251E+02</wgt>
<wgt id='4250'>0.74598E+02</wgt>
<wgt id='4251'>0.75215E+02</wgt>
<wgt id='4252'>0.76454E+02</wgt>
<wgt id='4253'>0.75673E+02</wgt>
<wgt id='4254'>0.76243E+02</wgt>
<wgt id='4255'>0.76232E+02</wgt>
<wgt id='4256'>0.75808E+02</wgt>
<wgt id='4257'>0.74583E+02</wgt>
<wgt id='4258'>0.76431E+02</wgt>
<wgt id='4300'>0.78750E+02</wgt>
<wgt id='4301'>0.77522E+02</wgt>
<wgt id='5000'>0.78857E+02</wgt>
<wgt id='5001'>0.78899E+02</wgt>
<wgt id='5002'>0.78804E+02</wgt>
<wgt id='5003'>0.78876E+02</wgt>
<wgt id='5004'>0.78840E+02</wgt>
<wgt id='5005'>0.78867E+02</wgt>
<wgt id='5006'>0.78842E+02</wgt>
<wgt id='5007'>0.78917E+02</wgt>
<wgt id='5008'>0.78809E+02</wgt>
<wgt id='5009'>0.78977E+02</wgt>
<wgt id='5010'>0.78734E+02</wgt>
<wgt id='5011'>0.79030E+02</wgt>
<wgt id='5012'>0.78691E+02</wgt>
<wgt id='5013'>0.78985E+02</wgt>
<wgt id='5014'>0.78767E+02</wgt>
<wgt id='5015'>0.78456E+02</wgt>
<wgt id='5016'>0.78456E+02</wgt>
<wgt id='5017'>0.79297E+02</wgt>
<wgt id='5018'>0.78560E+02</wgt>
<wgt id='5019'>0.79159E+02</wgt>
<wgt id='5020'>0.78444E+02</wgt>
<wgt id='5021'>0.78943E+02</wgt>
<wgt id='5022'>0.78726E+02</wgt>
<wgt id='5023'>0.78771E+02</wgt>
<wgt id='5024'>0.79065E+02</wgt>
<wgt id='5025'>0.78574E+02</wgt>
<wgt id='5026'>0.79176E+02</wgt>
<wgt id='5027'>0.78897E+02</wgt>
<wgt id='5028'>0.78750E+02</wgt>
<wgt id='5029'>0.79553E+02</wgt>
<wgt id='5030'>0.78464E+02</wgt>
<wgt id='5031'>0.78503E+02</wgt>
<wgt id='5032'>0.79933E+02</wgt>
<wgt id='5033'>0.78852E+02</wgt>
<wgt id='5034'>0.78863E+02</wgt>
<wgt id='5035'>0.78862E+02</wgt>
<wgt id='5036'>0.78853E+02</wgt>
<wgt id='5037'>0.78735E+02</wgt>
<wgt id='5038'>0.78927E+02</wgt>
<wgt id='5039'>0.79066E+02</wgt>
<wgt id='5040'>0.78342E+02</wgt>
<wgt id='5041'>0.79084E+02</wgt>
<wgt id='5042'>0.78626E+02</wgt>
<wgt id='5043'>0.78991E+02</wgt>
<wgt id='5044'>0.78779E+02</wgt>
<wgt id='5045'>0.78647E+02</wgt>
<wgt id='5046'>0.79252E+02</wgt>
<wgt id='5047'>0.78896E+02</wgt>
<wgt id='5048'>0.78687E+02</wgt>
<wgt id='5049'>0.78834E+02</wgt>
<wgt id='5050'>0.78916E+02</wgt>
<wgt id='5051'>0.78975E+02</wgt>
<wgt id='5052'>0.78753E+02</wgt>
<wgt id='5053'>0.78764E+02</wgt>
<wgt id='5054'>0.78993E+02</wgt>
<wgt id='5055'>0.78905E+02</wgt>
<wgt id='5056'>0.78884E+02</wgt>
<wgt id='5057'>0.78607E+02</wgt>
<wgt id='5058'>0.79033E+02</wgt>
<wgt id='5059'>0.78847E+02</wgt>
<wgt id='5060'>0.78873E+02</wgt>
<wgt id='5061'>0.79145E+02</wgt>
<wgt id='5062'>0.78863E+02</wgt>
<wgt id='5063'>0.79171E+02</wgt>
<wgt id='5064'>0.78779E+02</wgt>
<wgt id='5100'>0.78857E+02</wgt>
<wgt id='5101'>0.78878E+02</wgt>
<wgt id='6000'>0.79279E+02</wgt>
<wgt id='6001'>0.79483E+02</wgt>
<wgt id='6002'>0.79353E+02</wgt>
<wgt id='6003'>0.79259E+02</wgt>
<wgt id='6004'>0.79265E+02</wgt>
<wgt id='6005'>0.79174E+02</wgt>
<wgt id='6006'>0.79589E+02</wgt>
<wgt id='6007'>0.79154E+02</wgt>
<wgt id='6008'>0.78670E+02</wgt>
<wgt id='6009'>0.79623E+02</wgt>
<wgt id='6010'>0.78111E+02</wgt>
<wgt id='6011'>0.79250E+02</wgt>
<wgt id='6012'>0.79551E+02</wgt>
<wgt id='6013'>0.79087E+02</wgt>
<wgt id='6014'>0.79232E+02</wgt>
<wgt id='6015'>0.78740E+02</wgt>
<wgt id='6016'>0.79348E+02</wgt>
<wgt id='6017'>0.79321E+02</wgt>
<wgt id='6018'>0.79164E+02</wgt>
<wgt id='6019'>0.79348E+02</wgt>
<wgt id='6020'>0.79460E+02</wgt>
<wgt id='6021'>0.79391E+02</wgt>
<wgt id='6022'>0.79276E+02</wgt>
<wgt id='6023'>0.79324E+02</wgt>
<wgt id='6024'>0.79356E+02</wgt>
<wgt id='6025'>0.79518E+02</wgt>
<wgt id='6026'>0.79340E+02</wgt>
<wgt id='6027'>0.79310E+02</wgt>
<wgt id='6028'>0.79142E+02</wgt>
<wgt id='6029'>0.79107E+02</wgt>
<wgt id='6030'>0.80085E+02</wgt>
<wgt id='6031'>0.79117E+02</wgt>
<wgt id='6032'>0.79314E+02</wgt>
<wgt id='6033'>0.79157E+02</wgt>
<wgt id='6034'>0.79490E+02</wgt>
<wgt id='6035'>0.79324E+02</wgt>
<wgt id='6036'>0.79704E+02</wgt>
<wgt id='6037'>0.79289E+02</wgt>
<wgt id='6038'>0.79342E+02</wgt>
<wgt id='6039'>0.79413E+02</wgt>
<wgt id='6040'>0.79264E+02</wgt>
<wgt id='6041'>0.77702E+02</wgt>
<wgt id='6042'>0.79656E+02</wgt>
<wgt id='7000'>0.78749E+02</wgt>
<wgt id='7001'>0.77813E+02</wgt>
<wgt id='7002'>0.77986E+02</wgt>
<wgt id='7003'>0.77871E+02</wgt>
<wgt id='7004'>0.77928E+02</wgt>
<wgt id='7005'>0.78003E+02</wgt>
<wgt id='7006'>0.77796E+02</wgt>
<wgt id='7007'>0.78405E+02</wgt>
<wgt id='7008'>0.77408E+02</wgt>
<wgt id='7009'>0.77571E+02</wgt>
<wgt id='7010'>0.78240E+02</wgt>
<wgt id='7011'>0.78169E+02</wgt>
<wgt id='7012'>0.77632E+02</wgt>
<wgt id='7013'>0.77771E+02</wgt>
<wgt id='7014'>0.78019E+02</wgt>
<wgt id='7015'>0.77785E+02</wgt>
<wgt id='7016'>0.77778E+02</wgt>
<wgt id='7017'>0.77938E+02</wgt>
<wgt id='7018'>0.77865E+02</wgt>
<wgt id='7019'>0.77727E+02</wgt>
<wgt id='7020'>0.78081E+02</wgt>
<wgt id='7021'>0.77945E+02</wgt>
<wgt id='7022'>0.77839E+02</wgt>
<wgt id='7023'>0.77632E+02</wgt>
<wgt id='7024'>0.78181E+02</wgt>
<wgt id='7025'>0.77014E+02</wgt>
<wgt id='7026'>0.78717E+02</wgt>
<wgt id='7027'>0.77551E+02</wgt>
<wgt id='7028'>0.78297E+02</wgt>
<wgt id='8000'>0.79116E+02</wgt>
<wgt id='8001'>0.79106E+02</wgt>
<wgt id='8002'>0.79140E+02</wgt>
<wgt id='8003'>0.79118E+02</wgt>
<wgt id='8004'>0.79114E+02</wgt>
<wgt id='8005'>0.78969E+02</wgt>
<wgt id='8006'>0.79197E+02</wgt>
<wgt id='8007'>0.79275E+02</wgt>
<wgt id='8008'>0.79296E+02</wgt>
<wgt id='8009'>0.79451E+02</wgt>
<wgt id='8010'>0.79027E+02</wgt>
<wgt id='8011'>0.79129E+02</wgt>
<wgt id='8012'>0.78815E+02</wgt>
<wgt id='8013'>0.78957E+02</wgt>
<wgt id='8014'>0.79305E+02</wgt>
<wgt id='8015'>0.79071E+02</wgt>
<wgt id='8016'>0.79187E+02</wgt>
<wgt id='8017'>0.79154E+02</wgt>
<wgt id='8018'>0.79302E+02</wgt>
<wgt id='8019'>0.79200E+02</wgt>
<wgt id='8020'>0.79024E+02</wgt>
<wgt id='8021'>0.79061E+02</wgt>
<wgt id='8022'>0.78943E+02</wgt>
<wgt id='8023'>0.79065E+02</wgt>
<wgt id='8024'>0.78926E+02</wgt>
<wgt id='8025'>0.79135E+02</wgt>
<wgt id='8026'>0.79235E+02</wgt>
<wgt id='8027'>0.79150E+02</wgt>
<wgt id='8028'>0.79174E+02</wgt>
<wgt id='8029'>0.78846E+02</wgt>
<wgt id='3000'>0.81104E+02</wgt>
<wgt id='3001'>0.81217E+02</wgt>
<wgt id='3002'>0.80369E+02</wgt>
<wgt id='3003'>0.83679E+02</wgt>
<wgt id='3004'>0.81798E+02</wgt>
<wgt id='3005'>0.80335E+02</wgt>
<wgt id='3006'>0.83985E+02</wgt>
<wgt id='3007'>0.80770E+02</wgt>
<wgt id='3008'>0.80002E+02</wgt>
<wgt id='3009'>0.82120E+02</wgt>
<wgt id='3010'>0.82718E+02</wgt>
<wgt id='3011'>0.83112E+02</wgt>
<wgt id='3012'>0.81881E+02</wgt>
<wgt id='3013'>0.80162E+02</wgt>
<wgt id='3014'>0.80376E+02</wgt>
<wgt id='3015'>0.80935E+02</wgt>
<wgt id='3016'>0.82174E+02</wgt>
<wgt id='3017'>0.82559E+02</wgt>
<wgt id='3018'>0.81195E+02</wgt>
<wgt id='3019'>0.78966E+02</wgt>
<wgt id='3020'>0.79975E+02</wgt>
<wgt id='3021'>0.79536E+02</wgt>
<wgt id='3022'>0.78733E+02</wgt>
<wgt id='3023'>0.79251E+02</wgt>
<wgt id='3024'>0.79509E+02</wgt>
<wgt id='3025'>0.79593E+02</wgt>
<wgt id='3026'>0.80472E+02</wgt>
<wgt id='3027'>0.79282E+02</wgt>
<wgt id='3028'>0.82109E+02</wgt>
<wgt id='3029'>0.82243E+02</wgt>
<wgt id='3030'>0.83020E+02</wgt>
<wgt id='3031'>0.82220E+02</wgt>
<wgt id='3032'>0.82912E+02</wgt>
<wgt id='3033'>0.80111E+02</wgt>
<wgt id='3034'>0.81039E+02</wgt>
<wgt id='3035'>0.82188E+02</wgt>
<wgt id='3036'>0.81131E+02</wgt>
<wgt id='3037'>0.81546E+02</wgt>
<wgt id='3038'>0.80882E+02</wgt>
<wgt id='3039'>0.81638E+02</wgt>
<wgt id='3040'>0.80806E+02</wgt>
<wgt id='3041'>0.81030E+02</wgt>
<wgt id='3042'>0.80906E+02</wgt>
<wgt id='3043'>0.80866E+02</wgt>
<wgt id='3044'>0.80748E+02</wgt>
<wgt id='3045'>0.80967E+02</wgt>
<wgt id='3046'>0.81663E+02</wgt>
<wgt id='3047'>0.80660E+02</wgt>
<wgt id='3048'>0.79266E+02</wgt>
<wgt id='3049'>0.81952E+02</wgt>
<wgt id='3050'>0.82822E+02</wgt>
<wgt id='3051'>0.81600E+02</wgt>
<wgt id='3052'>0.79958E+02</wgt>
<wgt id='3053'>0.80444E+02</wgt>
<wgt id='3054'>0.81887E+02</wgt>
<wgt id='3055'>0.79216E+02</wgt>
<wgt id='3056'>0.80565E+02</wgt>
<wgt id='3057'>0.80604E+02</wgt>
<wgt id='3058'>0.79153E+02</wgt>
<wgt id='3059'>0.82169E+02</wgt>
<wgt id='3060'>0.81572E+02</wgt>
<wgt id='3061'>0.81299E+02</wgt>
<wgt id='3062'>0.80862E+02</wgt>
<wgt id='3063'>0.78659E+02</wgt>
<wgt id='3064'>0.80528E+02</wgt>
<wgt id='3065'>0.80329E+02</wgt>
<wgt id='3066'>0.81334E+02</wgt>
<wgt id='3067'>0.79584E+02</wgt>
<wgt id='3068'>0.81717E+02</wgt>
<wgt id='3069'>0.80637E+02</wgt>
<wgt id='3070'>0.79833E+02</wgt>
<wgt id='3071'>0.82223E+02</wgt>
<wgt id='3072'>0.80864E+02</wgt>
<wgt id='3073'>0.81873E+02</wgt>
<wgt id='3074'>0.81977E+02</wgt>
<wgt id='3075'>0.82502E+02</wgt>
<wgt id='3076'>0.82559E+02</wgt>
<wgt id='3077'>0.79848E+02</wgt>
<wgt id='3078'>0.82301E+02</wgt>
<wgt id='3079'>0.80684E+02</wgt>
<wgt id='3080'>0.81219E+02</wgt>
<wgt id='3081'>0.79307E+02</wgt>
<wgt id='3082'>0.82174E+02</wgt>
<wgt id='3083'>0.81169E+02</wgt>
<wgt id='3084'>0.80878E+02</wgt>
<wgt id='3085'>0.84213E+02</wgt>
<wgt id='3086'>0.79881E+02</wgt>
<wgt id='3087'>0.82024E+02</wgt>
<wgt id='3088'>0.82731E+02</wgt>
<wgt id='3089'>0.83372E+02</wgt>
<wgt id='3090'>0.81221E+02</wgt>
<wgt id='3091'>0.80228E+02</wgt>
<wgt id='3092'>0.82149E+02</wgt>
<wgt id='3093'>0.81411E+02</wgt>
<wgt id='3094'>0.80970E+02</wgt>
<wgt id='3095'>0.81362E+02</wgt>
<wgt id='3096'>0.80212E+02</wgt>
<wgt id='3097'>0.79992E+02</wgt>
<wgt id='3098'>0.81787E+02</wgt>
<wgt id='3099'>0.79956E+02</wgt>
<wgt id='3100'>0.80261E+02</wgt>
<wgt id='3200'>0.78112E+02</wgt>
<wgt id='3201'>0.78676E+02</wgt>
<wgt id='3202'>0.77164E+02</wgt>
<wgt id='3203'>0.78080E+02</wgt>
<wgt id='3204'>0.77495E+02</wgt>
<wgt id='3205'>0.78918E+02</wgt>
<wgt id='3206'>0.78465E+02</wgt>
<wgt id='3207'>0.78837E+02</wgt>
<wgt id='3208'>0.78571E+02</wgt>
<wgt id='3209'>0.77929E+02</wgt>
<wgt id='3210'>0.78000E+02</wgt>
<wgt id='3211'>0.78741E+02</wgt>
<wgt id='3212'>0.76949E+02</wgt>
<wgt id='3213'>0.77916E+02</wgt>
<wgt id='3214'>0.77605E+02</wgt>
<wgt id='3215'>0.78127E+02</wgt>
<wgt id='3216'>0.78935E+02</wgt>
<wgt id='3217'>0.78460E+02</wgt>
<wgt id='3218'>0.78073E+02</wgt>
<wgt id='3219'>0.77902E+02</wgt>
<wgt id='3220'>0.77678E+02</wgt>
<wgt id='3221'>0.78929E+02</wgt>
<wgt id='3222'>0.79326E+02</wgt>
<wgt id='3223'>0.77646E+02</wgt>
<wgt id='3224'>0.77958E+02</wgt>
<wgt id='3225'>0.78668E+02</wgt>
<wgt id='3226'>0.78481E+02</wgt>
<wgt id='3227'>0.77602E+02</wgt>
<wgt id='3228'>0.77665E+02</wgt>
<wgt id='3229'>0.78423E+02</wgt>
<wgt id='3230'>0.78649E+02</wgt>
<wgt id='3231'>0.78415E+02</wgt>
<wgt id='3232'>0.78529E+02</wgt>
<wgt id='3233'>0.78795E+02</wgt>
<wgt id='3234'>0.78150E+02</wgt>
<wgt id='3235'>0.77355E+02</wgt>
<wgt id='3236'>0.77161E+02</wgt>
<wgt id='3237'>0.77699E+02</wgt>
<wgt id='3238'>0.78124E+02</wgt>
<wgt id='3239'>0.77687E+02</wgt>
<wgt id='3240'>0.77951E+02</wgt>
<wgt id='3241'>0.78755E+02</wgt>
<wgt id='3242'>0.77483E+02</wgt>
<wgt id='3243'>0.77083E+02</wgt>
<wgt id='3244'>0.77864E+02</wgt>
<wgt id='3245'>0.78438E+02</wgt>
<wgt id='3246'>0.77654E+02</wgt>
<wgt id='3247'>0.78248E+02</wgt>
<wgt id='3248'>0.77910E+02</wgt>
<wgt id='3249'>0.77818E+02</wgt>
<wgt id='3250'>0.78461E+02</wgt>
<wgt id='3251'>0.78152E+02</wgt>
<wgt id='3252'>0.78271E+02</wgt>
<wgt id='3253'>0.77948E+02</wgt>
<wgt id='3254'>0.77815E+02</wgt>
<wgt id='3255'>0.78051E+02</wgt>
<wgt id='3256'>0.77448E+02</wgt>
<wgt id='3257'>0.77875E+02</wgt>
<wgt id='3258'>0.78555E+02</wgt>
<wgt id='3259'>0.78541E+02</wgt>
<wgt id='3260'>0.78417E+02</wgt>
<wgt id='3261'>0.78895E+02</wgt>
<wgt id='3262'>0.77667E+02</wgt>
<wgt id='3263'>0.78795E+02</wgt>
<wgt id='3264'>0.78358E+02</wgt>
<wgt id='3265'>0.78189E+02</wgt>
<wgt id='3266'>0.77699E+02</wgt>
<wgt id='3267'>0.77829E+02</wgt>
<wgt id='3268'>0.78880E+02</wgt>
<wgt id='3269'>0.78271E+02</wgt>
<wgt id='3270'>0.77973E+02</wgt>
<wgt id='3271'>0.78179E+02</wgt>
<wgt id='3272'>0.78599E+02</wgt>
<wgt id='3273'>0.78013E+02</wgt>
<wgt id='3274'>0.78559E+02</wgt>
<wgt id='3275'>0.78346E+02</wgt>
<wgt id='3276'>0.77651E+02</wgt>
<wgt id='3277'>0.77239E+02</wgt>
<wgt id='3278'>0.77897E+02</wgt>
<wgt id='3279'>0.78933E+02</wgt>
<wgt id='3280'>0.77965E+02</wgt>
<wgt id='3281'>0.78357E+02</wgt>
<wgt id='3282'>0.78483E+02</wgt>
<wgt id='3283'>0.78478E+02</wgt>
<wgt id='3284'>0.78282E+02</wgt>
<wgt id='3285'>0.77366E+02</wgt>
<wgt id='3286'>0.78001E+02</wgt>
<wgt id='3287'>0.77591E+02</wgt>
<wgt id='3288'>0.78462E+02</wgt>
<wgt id='3289'>0.79162E+02</wgt>
<wgt id='3290'>0.79533E+02</wgt>
<wgt id='3291'>0.76685E+02</wgt>
<wgt id='3292'>0.76919E+02</wgt>
<wgt id='3293'>0.77905E+02</wgt>
<wgt id='3294'>0.76523E+02</wgt>
<wgt id='3295'>0.77550E+02</wgt>
<wgt id='3296'>0.79413E+02</wgt>
<wgt id='3297'>0.77715E+02</wgt>
<wgt id='3298'>0.78199E+02</wgt>
<wgt id='3299'>0.77579E+02</wgt>
<wgt id='3300'>0.78682E+02</wgt>
<wgt id='3301'>0.76666E+02</wgt>
<wgt id='3302'>0.79449E+02</wgt>
<wgt id='3400'>0.78562E+02</wgt>
<wgt id='3401'>0.78651E+02</wgt>
<wgt id='3402'>0.78217E+02</wgt>
<wgt id='3403'>0.79350E+02</wgt>
<wgt id='3404'>0.79665E+02</wgt>
<wgt id='3405'>0.79550E+02</wgt>
<wgt id='3406'>0.78220E+02</wgt>
<wgt id='3407'>0.77771E+02</wgt>
<wgt id='3408'>0.80032E+02</wgt>
<wgt id='3409'>0.79707E+02</wgt>
<wgt id='3410'>0.78814E+02</wgt>
<wgt id='3411'>0.78799E+02</wgt>
<wgt id='3412'>0.79088E+02</wgt>
<wgt id='3413'>0.78397E+02</wgt>
<wgt id='3414'>0.78640E+02</wgt>
<wgt id='3415'>0.78717E+02</wgt>
<wgt id='3416'>0.78239E+02</wgt>
<wgt id='3417'>0.78338E+02</wgt>
<wgt id='3418'>0.78119E+02</wgt>
<wgt id='3419'>0.78053E+02</wgt>
<wgt id='3420'>0.79135E+02</wgt>
<wgt id='3421'>0.79254E+02</wgt>
<wgt id='3422'>0.79022E+02</wgt>
<wgt id='3423'>0.79297E+02</wgt>
<wgt id='3424'>0.78821E+02</wgt>
<wgt id='3425'>0.78623E+02</wgt>
<wgt id='3426'>0.78777E+02</wgt>
<wgt id='3427'>0.78814E+02</wgt>
<wgt id='3428'>0.79230E+02</wgt>
<wgt id='3429'>0.78000E+02</wgt>
<wgt id='3430'>0.78809E+02</wgt>
<wgt id='3431'>0.78359E+02</wgt>
<wgt id='3432'>0.77875E+02</wgt>
<wgt id='3433'>0.77213E+02</wgt>
<wgt id='3434'>0.78582E+02</wgt>
<wgt id='3435'>0.78817E+02</wgt>
<wgt id='3436'>0.78619E+02</wgt>
<wgt id='3437'>0.78151E+02</wgt>
<wgt id='3438'>0.77814E+02</wgt>
<wgt id='3439'>0.79393E+02</wgt>
<wgt id='3440'>0.78728E+02</wgt>
<wgt id='3441'>0.78613E+02</wgt>
<wgt id='3442'>0.77297E+02</wgt>
<wgt id='3443'>0.78339E+02</wgt>
<wgt id='3444'>0.78640E+02</wgt>
<wgt id='3445'>0.78154E+02</wgt>
<wgt id='3446'>0.79574E+02</wgt>
<wgt id='3447'>0.79976E+02</wgt>
<wgt id='3448'>0.78939E+02</wgt>
<wgt id='3449'>0.79449E+02</wgt>
<wgt id='3450'>0.78693E+02</wgt>
<wgt id='3451'>0.79283E+02</wgt>
<wgt id='3452'>0.78058E+02</wgt>
<wgt id='3453'>0.77839E+02</wgt>
<wgt id='3454'>0.77632E+02</wgt>
<wgt id='3455'>0.79613E+02</wgt>
<wgt id='3456'>0.78922E+02</wgt>
<wgt id='3457'>0.79836E+02</wgt>
<wgt id='3458'>0.78929E+02</wgt>
<wgt id='3459'>0.78391E+02</wgt>
<wgt id='3460'>0.78417E+02</wgt>
<wgt id='3461'>0.78162E+02</wgt>
<wgt id='3462'>0.78125E+02</wgt>
<wgt id='3463'>0.77924E+02</wgt>
<wgt id='3464'>0.78890E+02</wgt>
<wgt id='3465'>0.78362E+02</wgt>
<wgt id='3466'>0.79061E+02</wgt>
<wgt id='3467'>0.78272E+02</wgt>
<wgt id='3468'>0.77938E+02</wgt>
<wgt id='3469'>0.78860E+02</wgt>
<wgt id='3470'>0.78516E+02</wgt>
<wgt id='3471'>0.78419E+02</wgt>
<wgt id='3472'>0.77954E+02</wgt>
<wgt id='3473'>0.78721E+02</wgt>
<wgt id='3474'>0.78691E+02</wgt>
<wgt id='3475'>0.78359E+02</wgt>
<wgt id='3476'>0.78545E+02</wgt>
<wgt id='3477'>0.77976E+02</wgt>
<wgt id='3478'>0.79073E+02</wgt>
<wgt id='3479'>0.79221E+02</wgt>
<wgt id='3480'>0.77716E+02</wgt>
<wgt id='3481'>0.78378E+02</wgt>
<wgt id='3482'>0.78405E+02</wgt>
<wgt id='3483'>0.77149E+02</wgt>
<wgt id='3484'>0.78674E+02</wgt>
<wgt id='3485'>0.78198E+02</wgt>
<wgt id='3486'>0.77590E+02</wgt>
<wgt id='3487'>0.79105E+02</wgt>
<wgt id='3488'>0.79196E+02</wgt>
<wgt id='3489'>0.77896E+02</wgt>
<wgt id='3490'>0.79186E+02</wgt>
<wgt id='3491'>0.78068E+02</wgt>
<wgt id='3492'>0.79001E+02</wgt>
<wgt id='3493'>0.77590E+02</wgt>
<wgt id='3494'>0.76655E+02</wgt>
<wgt id='3495'>0.78752E+02</wgt>
<wgt id='3496'>0.77540E+02</wgt>
<wgt id='3497'>0.78030E+02</wgt>
<wgt id='3498'>0.78370E+02</wgt>
<wgt id='3499'>0.78673E+02</wgt>
<wgt id='3500'>0.78779E+02</wgt>
</rwgt>
</event>
<event>
     13 322200  8.11039E+01  1.64344E+01 -1.00000E+00  1.70563E-01
      21    -1     0     0   503   504  0.000000000E+00  0.000000000E+00  2.849998751E+02  2.849998751E+02  0.000000000E+00  0.00000E+00  9.000E+00
      21    -1     0     0   504   505  0.000000000E+00  0.000000000E+00 -1.496006383E+02  1.496006383E+02  0.000000000E+00  0.00000E+00  9.000E+00
       6     2     1     2   502     0  9.399630813E+00 -6.400601977E+01  4.534542505E+01  1.898421307E+02  1.726230095E+02  0.00000E+00  9.000E+00
      -6     2     1     2     0   505 -1.914929838E+01  7.723606472E+01  4.243933595E+01  1.943874742E+02  1.722012996E+02  0.00000E+00  9.000E+00
      21     1     1     2   503   502  9.749667570E+00 -1.323004496E+01  4.761447583E+01  5.037090842E+01  0.000000000E+00  0.00000E+00  9.000E+00
      24     2     3     3     0     0 -1.069399878E+01 -9.199146520E+01 -1.107910760E+01  1.235377523E+02  8.100640932E+01  0.00000E+00  9.000E+00
       5     1     3     3   502     0  2.009362959E+01  2.798544543E+01  5.642453265E+01  6.630437837E+01  5.060000000E+00  0.00000E+00 -1.000E+00
     -24     2     4     4     0     0 -3.184718717E+01  2.273473089E+01 -3.796533024E+01  9.629493776E+01  7.937403491E+01  0.00000E+00  9.000E+00
      -5     1     4     4     0   505  1.269788878E+01  5.450133383E+01  8.040466620E+01  9.809253649E+01  5.060000000E+00  0.00000E+00  1.000E+00
     -11     1     6     6     0     0  2.937699109E+01 -1.062472432E+01 -1.010832765E+01  3.283398636E+01  5.100000000E-04  0.00000E+00  1.000E+00
      12     1     6     6     0     0 -4.007098987E+01 -8.136674088E+01 -9.707799578E-01  9.070376599E+01  0.000000000E+00  0.00000E+00 -1.000E+00
      11     1     8     8     0     0 -4.327595826E+01 -1.510833820E+01 -3.293986938E+01  5.644559719E+01  5.100000000E-04  0.00000E+00 -1.000E+00
     -12     1     8     8     0     0  1.142877109E+01  3.784306909E+01 -5.025460858E+00  3.984934057E+01  0.000000000E+00  0.00000E+00  1.000E+00
#rwgt            1           1   1028.4441633222557               10       22258           0
<rwgt>
<wgt id='1001'>0.81104E+02</wgt>
<wgt id='1002'>0.82907E+02</wgt>
<wgt id='1003'>0.78846E+02</wgt>
<wgt id='1004'>0.69242E+02</wgt>
<wgt id='1005'>0.70364E+02</wgt>
<wgt id='1006'>0.67738E+02</wgt>
<wgt id='1007'>0.96339E+02</wgt>
<wgt id='1008'>0.99212E+02</wgt>
<wgt id='1009'>0.92913E+02</wgt>
<wgt id='2000'>0.81104E+02</wgt>
<wgt id='2001'>0.81257E+02</wgt>
<wgt id='2002'>0.80878E+02</wgt>
<wgt id='2003'>0.80956E+02</wgt>
<wgt id='2004'>0.81290E+02</wgt>
<wgt id='2005'>0.81283E+02</wgt>
<wgt id='2006'>0.81337E+02</wgt>
<wgt id='2007'>0.81489E+02</wgt>
<wgt id='2008'>0.81708E+02</wgt>
<wgt id='2009'>0.80958E+02</wgt>
<wgt id='2010'>0.81050E+02</wgt>
<wgt id='2011'>0.80478E+02</wgt>
<wgt id='2012'>0.81428E+02</wgt>
<wgt id='2013'>0.81160E+02</wgt>
<wgt id='2014'>0.81290E+02</wgt>
<wgt id='2015'>0.81238E+02</wgt>
<wgt id='2016'>0.81056E+02</wgt>
<wgt id='2017'>0.80914E+02</wgt>
<wgt id='2018'>0.81279E+02</wgt>
<wgt id='2019'>0.81630E+02</wgt>
<wgt id='2020'>0.80808E+02</wgt>
<wgt id='2021'>0.81257E+02</wgt>
<wgt id='2022'>0.80933E+02</wgt>
<wgt id='2023'>0.81179E+02</wgt>
<wgt id='2024'>0.81095E+02</wgt>
<wgt id='2025'>0.81032E+02</wgt>
<wgt id='2026'>0.81020E+02</wgt>
<wgt id='2027'>0.80910E+02</wgt>
<wgt id='2028'>0.81234E+02</wgt>
<wgt id='2029'>0.80879E+02</wgt>
<wgt id='2030'>0.81079E+02</wgt>
<wgt id='2031'>0.80888E+02</wgt>
<wgt id='2032'>0.81140E+02</wgt>
<wgt id='2033'>0.81016E+02</wgt>
<wgt id='2034'>0.81004E+02</wgt>
<wgt id='2035'>0.81112E+02</wgt>
<wgt id='2036'>0.81225E+02</wgt>
<wgt id='2037'>0.81100E+02</wgt>
<wgt id='2038'>0.81097E+02</wgt>
<wgt id='2039'>0.81100E+02</wgt>
<wgt id='2040'>0.81083E+02</wgt>
<wgt id='2041'>0.81117E+02</wgt>
<wgt id='2042'>0.81141E+02</wgt>
<wgt id='2043'>0.81046E+02</wgt>
<wgt id='2044'>0.81148E+02</wgt>
<wgt id='2045'>0.81117E+02</wgt>
<wgt id='2046'>0.81127E+02</wgt>
<wgt id='2047'>0.81087E+02</wgt>
<wgt id='2048'>0.81074E+02</wgt>
<wgt id='2049'>0.81057E+02</wgt>
<wgt id='2050'>0.81081E+02</wgt>
<wgt id='2051'>0.81092E+02</wgt>
<wgt id='2052'>0.81150E+02</wgt>
<wgt id='2053'>0.81090E+02</wgt>
<wgt id='2054'>0.81106E+02</wgt>
<wgt id='2055'>0.81128E+02</wgt>
<wgt id='2056'>0.81083E+02</wgt>
<wgt id='2057'>0.81132E+02</wgt>
<wgt id='2058'>0.81106E+02</wgt>
<wgt id='2059'>0.81118E+02</wgt>
<wgt id='2060'>0.81104E+02</wgt>
<wgt id='2061'>0.81089E+02</wgt>
<wgt id='2062'>0.81158E+02</wgt>
<wgt id='2063'>0.81119E+02</wgt>
<wgt id='2064'>0.81124E+02</wgt>
<wgt id='2065'>0.81156E+02</wgt>
<wgt id='2066'>0.81115E+02</wgt>
<wgt id='2067'>0.81125E+02</wgt>
<wgt id='2068'>0.81117E+02</wgt>
<wgt id='2069'>0.81111E+02</wgt>
<wgt id='2070'>0.81108E+02</wgt>
<wgt id='2071'>0.81113E+02</wgt>
<wgt id='2072'>0.81105E+02</wgt>
<wgt id='2073'>0.81123E+02</wgt>
<wgt id='2074'>0.81089E+02</wgt>
<wgt id='2075'>0.81091E+02</wgt>
<wgt id='2076'>0.81095E+02</wgt>
<wgt id='2077'>0.81150E+02</wgt>
<wgt id='2078'>0.81107E+02</wgt>
<wgt id='2079'>0.81090E+02</wgt>
<wgt id='2080'>0.81107E+02</wgt>
<wgt id='2081'>0.81089E+02</wgt>
<wgt id='2082'>0.81114E+02</wgt>
<wgt id='2083'>0.81124E+02</wgt>
<wgt id='2084'>0.81111E+02</wgt>
<wgt id='2085'>0.81100E+02</wgt>
<wgt id='2086'>0.81091E+02</wgt>
<wgt id='2087'>0.81114E+02</wgt>
<wgt id='2088'>0.81100E+02</wgt>
<wgt id='2089'>0.81100E+02</wgt>
<wgt id='2090'>0.81117E+02</wgt>
<wgt id='2091'>0.81108E+02</wgt>
<wgt id='2092'>0.81114E+02</wgt>
<wgt id='2093'>0.81091E+02</wgt>
<wgt id='2094'>0.81100E+02</wgt>
<wgt id='2095'>0.81111E+02</wgt>
<wgt id='2096'>0.81096E+02</wgt>
<wgt id='2097'>0.81108E+02</wgt>
<wgt id='2098'>0.81104E+02</wgt>
<wgt id='2099'>0.81112E+02</wgt>
<wgt id='2100'>0.81104E+02</wgt>
<wgt id='2101'>0.78798E+02</wgt>
<wgt id='2102'>0.83145E+02</wgt>
<wgt id='2200'>0.81111E+02</wgt>
<wgt id='2201'>0.71052E+02</wgt>
<wgt id='2202'>0.72886E+02</wgt>
<wgt id='2203'>0.75161E+02</wgt>
<wgt id='2204'>0.77372E+02</wgt>
<wgt id='2205'>0.80271E+02</wgt>
<wgt id='2206'>0.82374E+02</wgt>
<wgt id='2207'>0.84854E+02</wgt>
<wgt id='2208'>0.86918E+02</wgt>
<wgt id='2300'>0.84594E+02</wgt>
<wgt id='2301'>0.84791E+02</wgt>
<wgt id='2302'>0.84453E+02</wgt>
<wgt id='2303'>0.84800E+02</wgt>
<wgt id='2304'>0.84786E+02</wgt>
<wgt id='2305'>0.84970E+02</wgt>
<wgt id='2306'>0.84633E+02</wgt>
<wgt id='2307'>0.84934E+02</wgt>
<wgt id='2308'>0.84439E+02</wgt>
<wgt id='2309'>0.84861E+02</wgt>
<wgt id='2310'>0.84330E+02</wgt>
<wgt id='2311'>0.84531E+02</wgt>
<wgt id='2312'>0.85009E+02</wgt>
<wgt id='2313'>0.84294E+02</wgt>
<wgt id='2314'>0.84942E+02</wgt>
<wgt id='2315'>0.84587E+02</wgt>
<wgt id='2316'>0.84678E+02</wgt>
<wgt id='2317'>0.84958E+02</wgt>
<wgt id='2318'>0.84863E+02</wgt>
<wgt id='2319'>0.84125E+02</wgt>
<wgt id='2320'>0.84273E+02</wgt>
<wgt id='2321'>0.84151E+02</wgt>
<wgt id='2322'>0.84560E+02</wgt>
<wgt id='2323'>0.84358E+02</wgt>
<wgt id='2324'>0.84332E+02</wgt>
<wgt id='2325'>0.84592E+02</wgt>
<wgt id='2326'>0.84755E+02</wgt>
<wgt id='2327'>0.84626E+02</wgt>
<wgt id='2328'>0.84333E+02</wgt>
<wgt id='2329'>0.84560E+02</wgt>
<wgt id='2330'>0.84728E+02</wgt>
<wgt id='2331'>0.84643E+02</wgt>
<wgt id='2332'>0.84633E+02</wgt>
<wgt id='2333'>0.84634E+02</wgt>
<wgt id='2334'>0.84630E+02</wgt>
<wgt id='2335'>0.84666E+02</wgt>
<wgt id='2336'>0.84624E+02</wgt>
<wgt id='2337'>0.84593E+02</wgt>
<wgt id='2338'>0.84589E+02</wgt>
<wgt id='2339'>0.84657E+02</wgt>
<wgt id='2340'>0.84576E+02</wgt>
<wgt id='2341'>0.84575E+02</wgt>
<wgt id='2342'>0.84522E+02</wgt>
<wgt id='2343'>0.84516E+02</wgt>
<wgt id='2344'>0.84651E+02</wgt>
<wgt id='2345'>0.84649E+02</wgt>
<wgt id='2346'>0.84627E+02</wgt>
<wgt id='2347'>0.84577E+02</wgt>
<wgt id='2348'>0.84622E+02</wgt>
<wgt id='2349'>0.84569E+02</wgt>
<wgt id='2350'>0.84568E+02</wgt>
<wgt id='2351'>0.84672E+02</wgt>
<wgt id='2352'>0.84576E+02</wgt>
<wgt id='2353'>0.84581E+02</wgt>
<wgt id='2354'>0.84584E+02</wgt>
<wgt id='2355'>0.84599E+02</wgt>
<wgt id='2356'>0.84610E+02</wgt>
<wgt id='2357'>0.84585E+02</wgt>
<wgt id='2358'>0.84567E+02</wgt>
<wgt id='2359'>0.84602E+02</wgt>
<wgt id='2360'>0.84609E+02</wgt>
<wgt id='2361'>0.84626E+02</wgt>
<wgt id='2362'>0.84608E+02</wgt>
<wgt id='2363'>0.84608E+02</wgt>
<wgt id='2364'>0.84590E+02</wgt>
<wgt id='2365'>0.84597E+02</wgt>
<wgt id='2366'>0.84609E+02</wgt>
<wgt id='2367'>0.84557E+02</wgt>
<wgt id='2368'>0.84598E+02</wgt>
<wgt id='2369'>0.84575E+02</wgt>
<wgt id='2370'>0.84578E+02</wgt>
<wgt id='2371'>0.84591E+02</wgt>
<wgt id='2372'>0.84606E+02</wgt>
<wgt id='2373'>0.84584E+02</wgt>
<wgt id='2374'>0.84619E+02</wgt>
<wgt id='2375'>0.84595E+02</wgt>
<wgt id='2376'>0.84602E+02</wgt>
<wgt id='2377'>0.84597E+02</wgt>
<wgt id='2378'>0.84611E+02</wgt>
<wgt id='2379'>0.84591E+02</wgt>
<wgt id='2380'>0.84581E+02</wgt>
<wgt id='2381'>0.84595E+02</wgt>
<wgt id='2382'>0.84583E+02</wgt>
<wgt id='2383'>0.84595E+02</wgt>
<wgt id='2384'>0.84586E+02</wgt>
<wgt id='2385'>0.84597E+02</wgt>
<wgt id='2386'>0.84588E+02</wgt>
<wgt id='2387'>0.84586E+02</wgt>
<wgt id='2388'>0.84588E+02</wgt>
<wgt id='2389'>0.84596E+02</wgt>
<wgt id='2390'>0.84594E+02</wgt>
<wgt id='2391'>0.84595E+02</wgt>
<wgt id='2392'>0.84593E+02</wgt>
<wgt id='2393'>0.84593E+02</wgt>
<wgt id='2394'>0.84606E+02</wgt>
<wgt id='2395'>0.84596E+02</wgt>
<wgt id='2396'>0.84592E+02</wgt>
<wgt id='2397'>0.84581E+02</wgt>
<wgt id='2398'>0.84598E+02</wgt>
<wgt id='2399'>0.84603E+02</wgt>
<wgt id='2400'>0.84597E+02</wgt>
<wgt id='2401'>0.82426E+02</wgt>
<wgt id='2402'>0.86969E+02</wgt>
<wgt id='2500'>0.80699E+02</wgt>
<wgt id='2501'>0.84753E+02</wgt>
<wgt id='2600'>0.79054E+02</wgt>
<wgt id='2601'>0.79016E+02</wgt>
<wgt id='2602'>0.79052E+02</wgt>
<wgt id='2603'>0.79014E+02</wgt>
<wgt id='2604'>0.79244E+02</wgt>
<wgt id='2605'>0.78923E+02</wgt>
<wgt id='2606'>0.78754E+02</wgt>
<wgt id='2607'>0.79309E+02</wgt>
<wgt id='2608'>0.78890E+02</wgt>
<wgt id='2609'>0.79036E+02</wgt>
<wgt id='2610'>0.79015E+02</wgt>
<wgt id='2611'>0.78992E+02</wgt>
<wgt id='2612'>0.79422E+02</wgt>
<wgt id='2613'>0.79038E+02</wgt>
<wgt id='2614'>0.79070E+02</wgt>
<wgt id='2615'>0.79010E+02</wgt>
<wgt id='2616'>0.79040E+02</wgt>
<wgt id='2617'>0.79010E+02</wgt>
<wgt id='2618'>0.78938E+02</wgt>
<wgt id='2619'>0.79072E+02</wgt>
<wgt id='2620'>0.79098E+02</wgt>
<wgt id='2621'>0.79033E+02</wgt>
<wgt id='2622'>0.79021E+02</wgt>
<wgt id='2623'>0.79051E+02</wgt>
<wgt id='2624'>0.79055E+02</wgt>
<wgt id='2625'>0.79053E+02</wgt>
<wgt id='2626'>0.79060E+02</wgt>
<wgt id='2627'>0.79045E+02</wgt>
<wgt id='2628'>0.79054E+02</wgt>
<wgt id='2629'>0.79057E+02</wgt>
<wgt id='2630'>0.79047E+02</wgt>
<wgt id='2631'>0.79066E+02</wgt>
<wgt id='2632'>0.79038E+02</wgt>
<wgt id='2633'>0.79058E+02</wgt>
<wgt id='2634'>0.79063E+02</wgt>
<wgt id='2635'>0.79041E+02</wgt>
<wgt id='2636'>0.79059E+02</wgt>
<wgt id='2637'>0.79051E+02</wgt>
<wgt id='2638'>0.79041E+02</wgt>
<wgt id='2639'>0.79057E+02</wgt>
<wgt id='2640'>0.79058E+02</wgt>
<wgt id='2641'>0.79046E+02</wgt>
<wgt id='2642'>0.79050E+02</wgt>
<wgt id='2643'>0.79048E+02</wgt>
<wgt id='2644'>0.79056E+02</wgt>
<wgt id='2645'>0.79050E+02</wgt>
<wgt id='2646'>0.79060E+02</wgt>
<wgt id='2647'>0.79052E+02</wgt>
<wgt id='2648'>0.79052E+02</wgt>
<wgt id='2649'>0.79054E+02</wgt>
<wgt id='2650'>0.79053E+02</wgt>
<wgt id='2651'>0.77648E+02</wgt>
<wgt id='2652'>0.80374E+02</wgt>
<wgt id='2700'>0.76283E+02</wgt>
<wgt id='2701'>0.77648E+02</wgt>
<wgt id='2702'>0.78388E+02</wgt>
<wgt id='2703'>0.79642E+02</wgt>
<wgt id='2704'>0.80374E+02</wgt>
<wgt id='2705'>0.81639E+02</wgt>
<wgt id='2800'>0.80416E+02</wgt>
<wgt id='4000'>0.79006E+02</wgt>
<wgt id='4001'>0.79336E+02</wgt>
<wgt id='4002'>0.78798E+02</wgt>
<wgt id='4003'>0.79853E+02</wgt>
<wgt id='4004'>0.77893E+02</wgt>
<wgt id='4005'>0.78430E+02</wgt>
<wgt id='4006'>0.79390E+02</wgt>
<wgt id='4007'>0.80029E+02</wgt>
<wgt id='4008'>0.77951E+02</wgt>
<wgt id='4009'>0.79612E+02</wgt>
<wgt id='4010'>0.78597E+02</wgt>
<wgt id='4011'>0.79212E+02</wgt>
<wgt id='4012'>0.78777E+02</wgt>
<wgt id='4013'>0.79461E+02</wgt>
<wgt id='4014'>0.78556E+02</wgt>
<wgt id='4015'>0.78880E+02</wgt>
<wgt id='4016'>0.78603E+02</wgt>
<wgt id='4017'>0.78887E+02</wgt>
<wgt id='4018'>0.79158E+02</wgt>
<wgt id='4019'>0.79575E+02</wgt>
<wgt id='4020'>0.78045E+02</wgt>
<wgt id='4021'>0.78973E+02</wgt>
<wgt id='4022'>0.79023E+02</wgt>
<wgt id='4023'>0.78282E+02</wgt>
<wgt id='4024'>0.79506E+02</wgt>
<wgt id='4025'>0.79297E+02</wgt>
<wgt id='4026'>0.78190E+02</wgt>
<wgt id='4027'>0.78630E+02</wgt>
<wgt id='4028'>0.79276E+02</wgt>
<wgt id='4029'>0.77637E+02</wgt>
<wgt id='4030'>0.79731E+02</wgt>
<wgt id='4031'>0.79166E+02</wgt>
<wgt id='4032'>0.77809E+02</wgt>
<wgt id='4033'>0.78452E+02</wgt>
<wgt id='4034'>0.79436E+02</wgt>
<wgt id='4035'>0.79589E+02</wgt>
<wgt id='4036'>0.78472E+02</wgt>
<wgt id='4037'>0.79643E+02</wgt>
<wgt id='4038'>0.78298E+02</wgt>
<wgt id='4039'>0.79921E+02</wgt>
<wgt id='4040'>0.77956E+02</wgt>
<wgt id='4041'>0.78752E+02</wgt>
<wgt id='4042'>0.79188E+02</wgt>
<wgt id='4043'>0.77909E+02</wgt>
<wgt id='4044'>0.79750E+02</wgt>
<wgt id='4045'>0.81107E+02</wgt>
<wgt id='4046'>0.77981E+02</wgt>
<wgt id='4047'>0.77658E+02</wgt>
<wgt id='4048'>0.79410E+02</wgt>
<wgt id='4049'>0.78666E+02</wgt>
<wgt id='4050'>0.79192E+02</wgt>
<wgt id='4051'>0.80355E+02</wgt>
<wgt id='4052'>0.77625E+02</wgt>
<wgt id='4053'>0.80064E+02</wgt>
<wgt id='4054'>0.77835E+02</wgt>
<wgt id='4055'>0.79297E+02</wgt>
<wgt id='4056'>0.78528E+02</wgt>
<wgt id='4057'>0.78268E+02</wgt>
<wgt id='4058'>0.79527E+02</wgt>
<wgt id='4100'>0.80139E+02</wgt>
<wgt id='4101'>0.79605E+02</wgt>
<wgt id='4102'>0.78361E+02</wgt>
<wgt id='4103'>0.77686E+02</wgt>
<wgt id='4200'>0.75940E+02</wgt>
<wgt id='4201'>0.76099E+02</wgt>
<wgt id='4202'>0.75936E+02</wgt>
<wgt id='4203'>0.75436E+02</wgt>
<wgt id='4204'>0.76396E+02</wgt>
<wgt id='4205'>0.75959E+02</wgt>
<wgt id='4206'>0.75915E+02</wgt>
<wgt id='4207'>0.75555E+02</wgt>
<wgt id='4208'>0.76216E+02</wgt>
<wgt id='4209'>0.76040E+02</wgt>
<wgt id='4210'>0.75942E+02</wgt>
<wgt id='4211'>0.76859E+02</wgt>
<wgt id='4212'>0.75193E+02</wgt>
<wgt id='4213'>0.76009E+02</wgt>
<wgt id='4214'>0.75822E+02</wgt>
<wgt id='4215'>0.76153E+02</wgt>
<wgt id='4216'>0.75313E+02</wgt>
<wgt id='4217'>0.75556E+02</wgt>
<wgt id='4218'>0.76240E+02</wgt>
<wgt id='4219'>0.74947E+02</wgt>
<wgt id='4220'>0.76765E+02</wgt>
<wgt id='4221'>0.75381E+02</wgt>
<wgt id='4222'>0.76457E+02</wgt>
<wgt id='4223'>0.76874E+02</wgt>
<wgt id='4224'>0.75237E+02</wgt>
<wgt id='4225'>0.74345E+02</wgt>
<wgt id='4226'>0.77225E+02</wgt>
<wgt id='4227'>0.76159E+02</wgt>
<wgt id='4228'>0.75738E+02</wgt>
<wgt id='4229'>0.75892E+02</wgt>
<wgt id='4230'>0.75897E+02</wgt>
<wgt id='4231'>0.75745E+02</wgt>
<wgt id='4232'>0.76169E+02</wgt>
<wgt id='4233'>0.76194E+02</wgt>
<wgt id='4234'>0.75700E+02</wgt>
<wgt id='4235'>0.76185E+02</wgt>
<wgt id='4236'>0.75713E+02</wgt>
<wgt id='4237'>0.75740E+02</wgt>
<wgt id='4238'>0.76133E+02</wgt>
<wgt id='4239'>0.77193E+02</wgt>
<wgt id='4240'>0.74196E+02</wgt>
<wgt id='4241'>0.75330E+02</wgt>
<wgt id='4242'>0.76612E+02</wgt>
<wgt id='4243'>0.75954E+02</wgt>
<wgt id='4244'>0.75941E+02</wgt>
<wgt id='4245'>0.74886E+02</wgt>
<wgt id='4246'>0.77073E+02</wgt>
<wgt id='4247'>0.75693E+02</wgt>
<wgt id='4248'>0.76109E+02</wgt>
<wgt id='4249'>0.76856E+02</wgt>
<wgt id='4250'>0.74805E+02</wgt>
<wgt id='4251'>0.74457E+02</wgt>
<wgt id='4252'>0.76791E+02</wgt>
<wgt id='4253'>0.75349E+02</wgt>
<wgt id='4254'>0.76441E+02</wgt>
<wgt id='4255'>0.75727E+02</wgt>
<wgt id='4256'>0.75890E+02</wgt>
<wgt id='4257'>0.74522E+02</wgt>
<wgt id='4258'>0.76358E+02</wgt>
<wgt id='4300'>0.78188E+02</wgt>
<wgt id='4301'>0.77180E+02</wgt>
<wgt id='5000'>0.78703E+02</wgt>
<wgt id='5001'>0.78726E+02</wgt>
<wgt id='5002'>0.78674E+02</wgt>
<wgt id='5003'>0.78722E+02</wgt>
<wgt id='5004'>0.78685E+02</wgt>
<wgt id='5005'>0.78689E+02</wgt>
<wgt id='5006'>0.78726E+02</wgt>
<wgt id='5007'>0.78744E+02</wgt>
<wgt id='5008'>0.78670E+02</wgt>
<wgt id='5009'>0.78797E+02</wgt>
<wgt id='5010'>0.78605E+02</wgt>
<wgt id='5011'>0.78842E+02</wgt>
<wgt id='5012'>0.78569E+02</wgt>
<wgt id='5013'>0.78796E+02</wgt>
<wgt id='5014'>0.78637E+02</wgt>
<wgt id='5015'>0.78328E+02</wgt>
<wgt id='5016'>0.78328E+02</wgt>
<wgt id='5017'>0.79172E+02</wgt>
<wgt id='5018'>0.78386E+02</wgt>
<wgt id='5019'>0.79036E+02</wgt>
<wgt id='5020'>0.78247E+02</wgt>
<wgt id='5021'>0.78808E+02</wgt>
<wgt id='5022'>0.78538E+02</wgt>
<wgt id='5023'>0.78584E+02</wgt>
<wgt id='5024'>0.78988E+02</wgt>
<wgt id='5025'>0.78331E+02</wgt>
<wgt id='5026'>0.79123E+02</wgt>
<wgt id='5027'>0.78723E+02</wgt>
<wgt id='5028'>0.78647E+02</wgt>
<wgt id='5029'>0.79105E+02</wgt>
<wgt id='5030'>0.78472E+02</wgt>
<wgt id='5031'>0.78543E+02</wgt>
<wgt id='5032'>0.79173E+02</wgt>
<wgt id='5033'>0.78736E+02</wgt>
<wgt id='5034'>0.78668E+02</wgt>
<wgt id='5035'>0.78700E+02</wgt>
<wgt id='5036'>0.78709E+02</wgt>
<wgt id='5037'>0.78685E+02</wgt>
<wgt id='5038'>0.78714E+02</wgt>
<wgt id='5039'>0.78914E+02</wgt>
<wgt id='5040'>0.78187E+02</wgt>
<wgt id='5041'>0.79178E+02</wgt>
<wgt id='5042'>0.78233E+02</wgt>
<wgt id='5043'>0.78737E+02</wgt>
<wgt id='5044'>0.78724E+02</wgt>
<wgt id='5045'>0.78566E+02</wgt>
<wgt id='5046'>0.78740E+02</wgt>
<wgt id='5047'>0.78720E+02</wgt>
<wgt id='5048'>0.78628E+02</wgt>
<wgt id='5049'>0.78677E+02</wgt>
<wgt id='5050'>0.78737E+02</wgt>
<wgt id='5051'>0.78804E+02</wgt>
<wgt id='5052'>0.78587E+02</wgt>
<wgt id='5053'>0.78453E+02</wgt>
<wgt id='5054'>0.78801E+02</wgt>
<wgt id='5055'>0.78790E+02</wgt>
<wgt id='5056'>0.78698E+02</wgt>
<wgt id='5057'>0.78499E+02</wgt>
<wgt id='5058'>0.78844E+02</wgt>
<wgt id='5059'>0.78708E+02</wgt>
<wgt id='5060'>0.78712E+02</wgt>
<wgt id='5061'>0.78850E+02</wgt>
<wgt id='5062'>0.78683E+02</wgt>
<wgt id='5063'>0.78915E+02</wgt>
<wgt id='5064'>0.78651E+02</wgt>
<wgt id='5100'>0.78703E+02</wgt>
<wgt id='5101'>0.78750E+02</wgt>
<wgt id='6000'>0.79028E+02</wgt>
<wgt id='6001'>0.79233E+02</wgt>
<wgt id='6002'>0.79301E+02</wgt>
<wgt id='6003'>0.79047E+02</wgt>
<wgt id='6004'>0.78882E+02</wgt>
<wgt id='6005'>0.78995E+02</wgt>
<wgt id='6006'>0.79283E+02</wgt>
<wgt id='6007'>0.78989E+02</wgt>
<wgt id='6008'>0.77749E+02</wgt>
<wgt id='6009'>0.79318E+02</wgt>
<wgt id='6010'>0.78085E+02</wgt>
<wgt id='6011'>0.78996E+02</wgt>
<wgt id='6012'>0.79249E+02</wgt>
<wgt id='6013'>0.78848E+02</wgt>
<wgt id='6014'>0.79006E+02</wgt>
<wgt id='6015'>0.78567E+02</wgt>
<wgt id='6016'>0.79030E+02</wgt>
<wgt id='6017'>0.79099E+02</wgt>
<wgt id='6018'>0.78996E+02</wgt>
<wgt id='6019'>0.79064E+02</wgt>
<wgt id='6020'>0.79197E+02</wgt>
<wgt id='6021'>0.79113E+02</wgt>
<wgt id='6022'>0.78939E+02</wgt>
<wgt id='6023'>0.79075E+02</wgt>
<wgt id='6024'>0.79087E+02</wgt>
<wgt id='6025'>0.79209E+02</wgt>
<wgt id='6026'>0.79093E+02</wgt>
<wgt id='6027'>0.79071E+02</wgt>
<wgt id='6028'>0.78938E+02</wgt>
<wgt id='6029'>0.78941E+02</wgt>
<wgt id='6030'>0.79786E+02</wgt>
<wgt id='6031'>0.78899E+02</wgt>
<wgt id='6032'>0.79038E+02</wgt>
<wgt id='6033'>0.78918E+02</wgt>
<wgt id='6034'>0.79202E+02</wgt>
<wgt id='6035'>0.79059E+02</wgt>
<wgt id='6036'>0.79343E+02</wgt>
<wgt id='6037'>0.79049E+02</wgt>
<wgt id='6038'>0.79085E+02</wgt>
<wgt id='6039'>0.79127E+02</wgt>
<wgt id='6040'>0.79039E+02</wgt>
<wgt id='6041'>0.78122E+02</wgt>
<wgt id='6042'>0.79886E+02</wgt>
<wgt id='7000'>0.78681E+02</wgt>
<wgt id='7001'>0.78355E+02</wgt>
<wgt id='7002'>0.78512E+02</wgt>
<wgt id='7003'>0.78441E+02</wgt>
<wgt id='7004'>0.78426E+02</wgt>
<wgt id='7005'>0.78574E+02</wgt>
<wgt id='7006'>0.78294E+02</wgt>
<wgt id='7007'>0.78902E+02</wgt>
<wgt id='7008'>0.77979E+02</wgt>
<wgt id='7009'>0.78228E+02</wgt>
<wgt id='7010'>0.78649E+02</wgt>
<wgt id='7011'>0.78685E+02</wgt>
<wgt id='7012'>0.78185E+02</wgt>
<wgt id='7013'>0.78258E+02</wgt>
<wgt id='7014'>0.78603E+02</wgt>
<wgt id='7015'>0.78273E+02</wgt>
<wgt id='7016'>0.78391E+02</wgt>
<wgt id='7017'>0.78455E+02</wgt>
<wgt id='7018'>0.78409E+02</wgt>
<wgt id='7019'>0.78229E+02</wgt>
<wgt id='7020'>0.78642E+02</wgt>
<wgt id='7021'>0.78133E+02</wgt>
<wgt id='7022'>0.78687E+02</wgt>
<wgt id='7023'>0.78359E+02</wgt>
<wgt id='7024'>0.78517E+02</wgt>
<wgt id='7025'>0.77866E+02</wgt>
<wgt id='7026'>0.78889E+02</wgt>
<wgt id='7027'>0.78260E+02</wgt>
<wgt id='7028'>0.78667E+02</wgt>
<wgt id='8000'>0.79394E+02</wgt>
<wgt id='8001'>0.79380E+02</wgt>
<wgt id='8002'>0.79418E+02</wgt>
<wgt id='8003'>0.79398E+02</wgt>
<wgt id='8004'>0.79392E+02</wgt>
<wgt id='8005'>0.79232E+02</wgt>
<wgt id='8006'>0.79429E+02</wgt>
<wgt id='8007'>0.79466E+02</wgt>
<wgt id='8008'>0.79564E+02</wgt>
<wgt id='8009'>0.79720E+02</wgt>
<wgt id='8010'>0.79333E+02</wgt>
<wgt id='8011'>0.79386E+02</wgt>
<wgt id='8012'>0.79158E+02</wgt>
<wgt id='8013'>0.79284E+02</wgt>
<wgt id='8014'>0.79501E+02</wgt>
<wgt id='8015'>0.79346E+02</wgt>
<wgt id='8016'>0.79443E+02</wgt>
<wgt id='8017'>0.79412E+02</wgt>
<wgt id='8018'>0.79503E+02</wgt>
<wgt id='8019'>0.79525E+02</wgt>
<wgt id='8020'>0.79197E+02</wgt>
<wgt id='8021'>0.79371E+02</wgt>
<wgt id='8022'>0.79030E+02</wgt>
<wgt id='8023'>0.79423E+02</wgt>
<wgt id='8024'>0.79375E+02</wgt>
<wgt id='8025'>0.79556E+02</wgt>
<wgt id='8026'>0.79544E+02</wgt>
<wgt id='8027'>0.79352E+02</wgt>
<wgt id='8028'>0.79459E+02</wgt>
<wgt id='8029'>0.78907E+02</wgt>
<wgt id='3000'>0.81104E+02</wgt>
<wgt id='3001'>0.79744E+02</wgt>
<wgt id='3002'>0.80721E+02</wgt>
<wgt id='3003'>0.83137E+02</wgt>
<wgt id='3004'>0.81865E+02</wgt>
<wgt id='3005'>0.80926E+02</wgt>
<wgt id='3006'>0.82088E+02</wgt>
<wgt id='3007'>0.80269E+02</wgt>
<wgt id='3008'>0.80031E+02</wgt>
<wgt id='3009'>0.82987E+02</wgt>
<wgt id='3010'>0.82887E+02</wgt>
<wgt id='3011'>0.82385E+02</wgt>
<wgt id='3012'>0.80523E+02</wgt>
<wgt id='3013'>0.80243E+02</wgt>
<wgt id='3014'>0.79666E+02</wgt>
<wgt id='3015'>0.83592E+02</wgt>
<wgt id='3016'>0.83122E+02</wgt>
<wgt id='3017'>0.82839E+02</wgt>
<wgt id='3018'>0.80650E+02</wgt>
<wgt id='3019'>0.80195E+02</wgt>
<wgt id='3020'>0.81355E+02</wgt>
<wgt id='3021'>0.79411E+02</wgt>
<wgt id='3022'>0.79972E+02</wgt>
<wgt id='3023'>0.79952E+02</wgt>
<wgt id='3024'>0.79203E+02</wgt>
<wgt id='3025'>0.79714E+02</wgt>
<wgt id='3026'>0.81007E+02</wgt>
<wgt id='3027'>0.80673E+02</wgt>
<wgt id='3028'>0.80073E+02</wgt>
<wgt id='3029'>0.82648E+02</wgt>
<wgt id='3030'>0.83280E+02</wgt>
<wgt id='3031'>0.81764E+02</wgt>
<wgt id='3032'>0.81798E+02</wgt>
<wgt id='3033'>0.80301E+02</wgt>
<wgt id='3034'>0.79946E+02</wgt>
<wgt id='3035'>0.82751E+02</wgt>
<wgt id='3036'>0.80080E+02</wgt>
<wgt id='3037'>0.81254E+02</wgt>
<wgt id='3038'>0.80844E+02</wgt>
<wgt id='3039'>0.81928E+02</wgt>
<wgt id='3040'>0.80782E+02</wgt>
<wgt id='3041'>0.81773E+02</wgt>
<wgt id='3042'>0.79446E+02</wgt>
<wgt id='3043'>0.80975E+02</wgt>
<wgt id='3044'>0.80078E+02</wgt>
<wgt id='3045'>0.81395E+02</wgt>
<wgt id='3046'>0.81671E+02</wgt>
<wgt id='3047'>0.78370E+02</wgt>
<wgt id='3048'>0.78550E+02</wgt>
<wgt id='3049'>0.82546E+02</wgt>
<wgt id='3050'>0.82038E+02</wgt>
<wgt id='3051'>0.81099E+02</wgt>
<wgt id='3052'>0.79724E+02</wgt>
<wgt id='3053'>0.81178E+02</wgt>
<wgt id='3054'>0.81372E+02</wgt>
<wgt id='3055'>0.78924E+02</wgt>
<wgt id='3056'>0.80440E+02</wgt>
<wgt id='3057'>0.80534E+02</wgt>
<wgt id='3058'>0.79320E+02</wgt>
<wgt id='3059'>0.83918E+02</wgt>
<wgt id='3060'>0.81224E+02</wgt>
<wgt id='3061'>0.81114E+02</wgt>
<wgt id='3062'>0.80671E+02</wgt>
<wgt id='3063'>0.78948E+02</wgt>
<wgt id='3064'>0.80356E+02</wgt>
<wgt id='3065'>0.80437E+02</wgt>
<wgt id='3066'>0.81297E+02</wgt>
<wgt id='3067'>0.79020E+02</wgt>
<wgt id='3068'>0.82562E+02</wgt>
<wgt id='3069'>0.80164E+02</wgt>
<wgt id='3070'>0.78974E+02</wgt>
<wgt id='3071'>0.83531E+02</wgt>
<wgt id='3072'>0.83058E+02</wgt>
<wgt id='3073'>0.82421E+02</wgt>
<wgt id='3074'>0.83628E+02</wgt>
<wgt id='3075'>0.82545E+02</wgt>
<wgt id='3076'>0.83362E+02</wgt>
<wgt id='3077'>0.79879E+02</wgt>
<wgt id='3078'>0.82514E+02</wgt>
<wgt id='3079'>0.81300E+02</wgt>
<wgt id='3080'>0.80044E+02</wgt>
<wgt id='3081'>0.78696E+02</wgt>
<wgt id='3082'>0.83122E+02</wgt>
<wgt id='3083'>0.80862E+02</wgt>
<wgt id='3084'>0.81392E+02</wgt>
<wgt id='3085'>0.83984E+02</wgt>
<wgt id='3086'>0.78206E+02</wgt>
<wgt id='3087'>0.82394E+02</wgt>
<wgt id='3088'>0.81812E+02</wgt>
<wgt id='3089'>0.84151E+02</wgt>
<wgt id='3090'>0.79898E+02</wgt>
<wgt id='3091'>0.80071E+02</wgt>
<wgt id='3092'>0.82880E+02</wgt>
<wgt id='3093'>0.82312E+02</wgt>
<wgt id='3094'>0.80791E+02</wgt>
<wgt id='3095'>0.80043E+02</wgt>
<wgt id='3096'>0.80600E+02</wgt>
<wgt id='3097'>0.79362E+02</wgt>
<wgt id='3098'>0.81862E+02</wgt>
<wgt id='3099'>0.80583E+02</wgt>
<wgt id='3100'>0.80924E+02</wgt>
<wgt id='3200'>0.79034E+02</wgt>
<wgt id='3201'>0.79221E+02</wgt>
<wgt id='3202'>0.78350E+02</wgt>
<wgt id='3203'>0.78548E+02</wgt>
<wgt id='3204'>0.78686E+02</wgt>
<wgt id='3205'>0.79618E+02</wgt>
<wgt id='3206'>0.79176E+02</wgt>
<wgt id='3207'>0.79475E+02</wgt>
<wgt id='3208'>0.79351E+02</wgt>
<wgt id='3209'>0.78978E+02</wgt>
<wgt id='3210'>0.79035E+02</wgt>
<wgt id='3211'>0.80374E+02</wgt>
<wgt id='3212'>0.78103E+02</wgt>
<wgt id='3213'>0.78351E+02</wgt>
<wgt id='3214'>0.77833E+02</wgt>
<wgt id='3215'>0.78971E+02</wgt>
<wgt id='3216'>0.79031E+02</wgt>
<wgt id='3217'>0.79228E+02</wgt>
<wgt id='3218'>0.79030E+02</wgt>
<wgt id='3219'>0.79397E+02</wgt>
<wgt id='3220'>0.78048E+02</wgt>
<wgt id='3221'>0.79753E+02</wgt>
<wgt id='3222'>0.79440E+02</wgt>
<wgt id='3223'>0.79175E+02</wgt>
<wgt id='3224'>0.78543E+02</wgt>
<wgt id='3225'>0.79290E+02</wgt>
<wgt id='3226'>0.78965E+02</wgt>
<wgt id='3227'>0.78241E+02</wgt>
<wgt id='3228'>0.78302E+02</wgt>
<wgt id='3229'>0.79437E+02</wgt>
<wgt id='3230'>0.79578E+02</wgt>
<wgt id='3231'>0.79337E+02</wgt>
<wgt id='3232'>0.79542E+02</wgt>
<wgt id='3233'>0.79068E+02</wgt>
<wgt id='3234'>0.79597E+02</wgt>
<wgt id='3235'>0.78526E+02</wgt>
<wgt id='3236'>0.78620E+02</wgt>
<wgt id='3237'>0.78600E+02</wgt>
<wgt id='3238'>0.79069E+02</wgt>
<wgt id='3239'>0.78594E+02</wgt>
<wgt id='3240'>0.79638E+02</wgt>
<wgt id='3241'>0.79694E+02</wgt>
<wgt id='3242'>0.78248E+02</wgt>
<wgt id='3243'>0.78252E+02</wgt>
<wgt id='3244'>0.78774E+02</wgt>
<wgt id='3245'>0.79778E+02</wgt>
<wgt id='3246'>0.78772E+02</wgt>
<wgt id='3247'>0.78602E+02</wgt>
<wgt id='3248'>0.78684E+02</wgt>
<wgt id='3249'>0.79134E+02</wgt>
<wgt id='3250'>0.79537E+02</wgt>
<wgt id='3251'>0.79241E+02</wgt>
<wgt id='3252'>0.78980E+02</wgt>
<wgt id='3253'>0.79288E+02</wgt>
<wgt id='3254'>0.79292E+02</wgt>
<wgt id='3255'>0.79088E+02</wgt>
<wgt id='3256'>0.77912E+02</wgt>
<wgt id='3257'>0.78922E+02</wgt>
<wgt id='3258'>0.79632E+02</wgt>
<wgt id='3259'>0.79135E+02</wgt>
<wgt id='3260'>0.78699E+02</wgt>
<wgt id='3261'>0.79234E+02</wgt>
<wgt id='3262'>0.78486E+02</wgt>
<wgt id='3263'>0.78539E+02</wgt>
<wgt id='3264'>0.79614E+02</wgt>
<wgt id='3265'>0.79970E+02</wgt>
<wgt id='3266'>0.78600E+02</wgt>
<wgt id='3267'>0.79132E+02</wgt>
<wgt id='3268'>0.80224E+02</wgt>
<wgt id='3269'>0.79149E+02</wgt>
<wgt id='3270'>0.79293E+02</wgt>
<wgt id='3271'>0.79199E+02</wgt>
<wgt id='3272'>0.79618E+02</wgt>
<wgt id='3273'>0.79341E+02</wgt>
<wgt id='3274'>0.79632E+02</wgt>
<wgt id='3275'>0.79028E+02</wgt>
<wgt id='3276'>0.79321E+02</wgt>
<wgt id='3277'>0.78398E+02</wgt>
<wgt id='3278'>0.79052E+02</wgt>
<wgt id='3279'>0.79465E+02</wgt>
<wgt id='3280'>0.78806E+02</wgt>
<wgt id='3281'>0.79167E+02</wgt>
<wgt id='3282'>0.79575E+02</wgt>
<wgt id='3283'>0.79050E+02</wgt>
<wgt id='3284'>0.78933E+02</wgt>
<wgt id='3285'>0.78374E+02</wgt>
<wgt id='3286'>0.79310E+02</wgt>
<wgt id='3287'>0.78449E+02</wgt>
<wgt id='3288'>0.79734E+02</wgt>
<wgt id='3289'>0.80603E+02</wgt>
<wgt id='3290'>0.80125E+02</wgt>
<wgt id='3291'>0.77903E+02</wgt>
<wgt id='3292'>0.77449E+02</wgt>
<wgt id='3293'>0.78387E+02</wgt>
<wgt id='3294'>0.77967E+02</wgt>
<wgt id='3295'>0.78192E+02</wgt>
<wgt id='3296'>0.80209E+02</wgt>
<wgt id='3297'>0.78960E+02</wgt>
<wgt id='3298'>0.79381E+02</wgt>
<wgt id='3299'>0.78428E+02</wgt>
<wgt id='3300'>0.79409E+02</wgt>
<wgt id='3301'>0.77648E+02</wgt>
<wgt id='3302'>0.80374E+02</wgt>
<wgt id='3400'>0.78928E+02</wgt>
<wgt id='3401'>0.78935E+02</wgt>
<wgt id='3402'>0.78978E+02</wgt>
<wgt id='3403'>0.79966E+02</wgt>
<wgt id='3404'>0.80299E+02</wgt>
<wgt id='3405'>0.79460E+02</wgt>
<wgt id='3406'>0.79124E+02</wgt>
<wgt id='3407'>0.78605E+02</wgt>
<wgt id='3408'>0.80726E+02</wgt>
<wgt id='3409'>0.79825E+02</wgt>
<wgt id='3410'>0.78386E+02</wgt>
<wgt id='3411'>0.79627E+02</wgt>
<wgt id='3412'>0.79927E+02</wgt>
<wgt id='3413'>0.78794E+02</wgt>
<wgt id='3414'>0.78544E+02</wgt>
<wgt id='3415'>0.78958E+02</wgt>
<wgt id='3416'>0.78293E+02</wgt>
<wgt id='3417'>0.79504E+02</wgt>
<wgt id='3418'>0.78461E+02</wgt>
<wgt id='3419'>0.78736E+02</wgt>
<wgt id='3420'>0.79520E+02</wgt>
<wgt id='3421'>0.79140E+02</wgt>
<wgt id='3422'>0.80067E+02</wgt>
<wgt id='3423'>0.79359E+02</wgt>
<wgt id='3424'>0.79209E+02</wgt>
<wgt id='3425'>0.78347E+02</wgt>
<wgt id='3426'>0.79798E+02</wgt>
<wgt id='3427'>0.78901E+02</wgt>
<wgt id='3428'>0.80165E+02</wgt>
<wgt id='3429'>0.78350E+02</wgt>
<wgt id='3430'>0.79701E+02</wgt>
<wgt id='3431'>0.79289E+02</wgt>
<wgt id='3432'>0.79239E+02</wgt>
<wgt id='3433'>0.77353E+02</wgt>
<wgt id='3434'>0.78584E+02</wgt>
<wgt id='3435'>0.78640E+02</wgt>
<wgt id='3436'>0.79212E+02</wgt>
<wgt id='3437'>0.79200E+02</wgt>
<wgt id='3438'>0.78215E+02</wgt>
<wgt id='3439'>0.79542E+02</wgt>
<wgt id='3440'>0.78914E+02</wgt>
<wgt id='3441'>0.78811E+02</wgt>
<wgt id='3442'>0.77123E+02</wgt>
<wgt id='3443'>0.78635E+02</wgt>
<wgt id='3444'>0.78473E+02</wgt>
<wgt id='3445'>0.78473E+02</wgt>
<wgt id='3446'>0.79159E+02</wgt>
<wgt id='3447'>0.80839E+02</wgt>
<wgt id='3448'>0.79473E+02</wgt>
<wgt id='3449'>0.79232E+02</wgt>
<wgt id='3450'>0.78667E+02</wgt>
<wgt id='3451'>0.80450E+02</wgt>
<wgt id='3452'>0.78570E+02</wgt>
<wgt id='3453'>0.78659E+02</wgt>
<wgt id='3454'>0.77846E+02</wgt>
<wgt id='3455'>0.80102E+02</wgt>
<wgt id='3456'>0.79340E+02</wgt>
<wgt id='3457'>0.79305E+02</wgt>
<wgt id='3458'>0.78927E+02</wgt>
<wgt id='3459'>0.78504E+02</wgt>
<wgt id='3460'>0.78469E+02</wgt>
<wgt id='3461'>0.78271E+02</wgt>
<wgt id='3462'>0.78097E+02</wgt>
<wgt id='3463'>0.77895E+02</wgt>
<wgt id='3464'>0.79541E+02</wgt>
<wgt id='3465'>0.78378E+02</wgt>
<wgt id='3466'>0.79008E+02</wgt>
<wgt id='3467'>0.78768E+02</wgt>
<wgt id='3468'>0.77289E+02</wgt>
<wgt id='3469'>0.79002E+02</wgt>
<wgt id='3470'>0.79226E+02</wgt>
<wgt id='3471'>0.79085E+02</wgt>
<wgt id='3472'>0.78457E+02</wgt>
<wgt id='3473'>0.79118E+02</wgt>
<wgt id='3474'>0.78651E+02</wgt>
<wgt id='3475'>0.78586E+02</wgt>
<wgt id='3476'>0.79549E+02</wgt>
<wgt id='3477'>0.77749E+02</wgt>
<wgt id='3478'>0.78805E+02</wgt>
<wgt id='3479'>0.80436E+02</wgt>
<wgt id='3480'>0.78372E+02</wgt>
<wgt id='3481'>0.79439E+02</wgt>
<wgt id='3482'>0.77945E+02</wgt>
<wgt id='3483'>0.77283E+02</wgt>
<wgt id='3484'>0.78606E+02</wgt>
<wgt id='3485'>0.78811E+02</wgt>
<wgt id='3486'>0.77528E+02</wgt>
<wgt id='3487'>0.78848E+02</wgt>
<wgt id='3488'>0.80247E+02</wgt>
<wgt id='3489'>0.78036E+02</wgt>
<wgt id='3490'>0.78658E+02</wgt>
<wgt id='3491'>0.79255E+02</wgt>
<wgt id='3492'>0.79458E+02</wgt>
<wgt id='3493'>0.78474E+02</wgt>
<wgt id='3494'>0.77699E+02</wgt>
<wgt id='3495'>0.78997E+02</wgt>
<wgt id='3496'>0.77710E+02</wgt>
<wgt id='3497'>0.78186E+02</wgt>
<wgt id='3498'>0.79507E+02</wgt>
<wgt id='3499'>0.79083E+02</wgt>
<wgt id='3500'>0.79932E+02</wgt>
</rwgt>
</event>
<event>
     13 322200  8.11039E+01  2.90114E+01 -1.00000E+00  1.51583E-01
      21    -1     0     0   502   503  0.000000000E+00  0.000000000E+00  3.912821514E+02  3.912821514E+02  0.000000000E+00  0.00000E+00  9.000E+00
      21    -1     0     0   503   504  0.000000000E+00  0.000000000E+00 -1.531321290E+02  1.531321290E+02  0.000000000E+00  0.00000E+00  9.000E+00
       6     2     1     2   502     0 -4.279248295E+01 -4.122043216E+01  2.617264577E+02  3.185789104E+02  1.716434177E+02  0.00000E+00  9.000E+00
      -6     2     1     2     0   505  5.594705343E+01  1.536273314E+01  6.427492284E+00  1.840993065E+02  1.745999875E+02  0.00000E+00  9.000E+00
      21     1     1     2   505   504 -1.315457048E+01  2.585769902E+01 -3.000392758E+01  4.173606346E+01  6.743495762E-07  0.00000E+00  9.000E+00
      24     2     3     3     0     0 -9.095165781E+01 -3.419933842E+01  2.227385221E+02  2.560148264E+02  8.055646024E+01  0.00000E+00  9.000E+00
       5     1     3     3   502     0  4.815917486E+01 -7.021093742E+00  3.898793556E+01  6.256408394E+01  5.060000000E+00  0.00000E+00 -1.000E+00
     -24     2     4     4     0     0  1.013797549E+02  3.219466146E+01 -5.275772672E+00  1.339992648E+02  8.132415548E+01  0.00000E+00  9.000E+00
      -5     1     4     4     0   505 -4.543270142E+01 -1.683192831E+01  1.170326496E+01  5.010004172E+01  5.060000000E+00  0.00000E+00  1.000E+00
     -15     1     6     6     0     0 -4.476254711E+01  1.587761327E+01  4.413753629E+01  6.486188454E+01  1.777000000E+00  0.00000E+00  1.000E+00
      16     1     6     6     0     0 -4.618911070E+01 -5.007695169E+01  1.786009858E+02  1.911529419E+02  0.000000000E+00  0.00000E+00 -1.000E+00
      13     1     8     8     0     0  8.510294165E+01  1.643127419E+00  2.424463294E+01  8.850437246E+01  1.057000000E-01  0.00000E+00 -1.000E+00
     -14     1     8     8     0     0  1.627681321E+01  3.055153404E+01 -2.952040562E+01  4.549489233E+01  0.000000000E+00  0.00000E+00  1.000E+00
#rwgt            1           1   571.94488119235461               10       22538           0
<rwgt>
<wgt id='1001'>0.81104E+02</wgt>
<wgt id='1002'>0.72354E+02</wgt>
<wgt id='1003'>0.92697E+02</wgt>
<wgt id='1004'>0.77933E+02</wgt>
<wgt id='1005'>0.70488E+02</wgt>
<wgt id='1006'>0.87525E+02</wgt>
<wgt id='1007'>0.81078E+02</wgt>
<wgt id='1008'>0.70641E+02</wgt>
<wgt id='1009'>0.95384E+02</wgt>
<wgt id='2000'>0.81104E+02</wgt>
<wgt id='2001'>0.81190E+02</wgt>
<wgt id='2002'>0.80900E+02</wgt>
<wgt id='2003'>0.81049E+02</wgt>
<wgt id='2004'>0.81305E+02</wgt>
<wgt id='2005'>0.81196E+02</wgt>
<wgt id='2006'>0.81295E+02</wgt>
<wgt id='2007'>0.81306E+02</wgt>
<wgt id='2008'>0.81514E+02</wgt>
<wgt id='2009'>0.81050E+02</wgt>
<wgt id='2010'>0.81116E+02</wgt>
<wgt id='2011'>0.80748E+02</wgt>
<wgt id='2012'>0.81265E+02</wgt>
<wgt id='2013'>0.81200E+02</wgt>
<wgt id='2014'>0.81393E+02</wgt>
<wgt id='2015'>0.81275E+02</wgt>
<wgt id='2016'>0.81122E+02</wgt>
<wgt id='2017'>0.81103E+02</wgt>
<wgt id='2018'>0.80970E+02</wgt>
<wgt id='2019'>0.81394E+02</wgt>
<wgt id='2020'>0.80887E+02</wgt>
<wgt id='2021'>0.80981E+02</wgt>
<wgt id='2022'>0.80993E+02</wgt>
<wgt id='2023'>0.81048E+02</wgt>
<wgt id='2024'>0.80964E+02</wgt>
<wgt id='2025'>0.81129E+02</wgt>
<wgt id='2026'>0.81135E+02</wgt>
<wgt id='2027'>0.80853E+02</wgt>
<wgt id='2028'>0.81122E+02</wgt>
<wgt id='2029'>0.80789E+02</wgt>
<wgt id='2030'>0.80996E+02</wgt>
<wgt id='2031'>0.80868E+02</wgt>
<wgt id='2032'>0.81233E+02</wgt>
<wgt id='2033'>0.81062E+02</wgt>
<wgt id='2034'>0.80902E+02</wgt>
<wgt id='2035'>0.81058E+02</wgt>
<wgt id='2036'>0.81324E+02</wgt>
<wgt id='2037'>0.81096E+02</wgt>
<wgt id='2038'>0.81076E+02</wgt>
<wgt id='2039'>0.81066E+02</wgt>
<wgt id='2040'>0.81025E+02</wgt>
<wgt id='2041'>0.81134E+02</wgt>
<wgt id='2042'>0.81054E+02</wgt>
<wgt id='2043'>0.81033E+02</wgt>
<wgt id='2044'>0.81104E+02</wgt>
<wgt id='2045'>0.81065E+02</wgt>
<wgt id='2046'>0.81061E+02</wgt>
<wgt id='2047'>0.81090E+02</wgt>
<wgt id='2048'>0.81129E+02</wgt>
<wgt id='2049'>0.81017E+02</wgt>
<wgt id='2050'>0.81074E+02</wgt>
<wgt id='2051'>0.81125E+02</wgt>
<wgt id='2052'>0.81170E+02</wgt>
<wgt id='2053'>0.81131E+02</wgt>
<wgt id='2054'>0.81100E+02</wgt>
<wgt id='2055'>0.81097E+02</wgt>
<wgt id='2056'>0.81067E+02</wgt>
<wgt id='2057'>0.81124E+02</wgt>
<wgt id='2058'>0.81116E+02</wgt>
<wgt id='2059'>0.81121E+02</wgt>
<wgt id='2060'>0.81117E+02</wgt>
<wgt id='2061'>0.81095E+02</wgt>
<wgt id='2062'>0.81176E+02</wgt>
<wgt id='2063'>0.81133E+02</wgt>
<wgt id='2064'>0.81122E+02</wgt>
<wgt id='2065'>0.81160E+02</wgt>
<wgt id='2066'>0.81083E+02</wgt>
<wgt id='2067'>0.81116E+02</wgt>
<wgt id='2068'>0.81125E+02</wgt>
<wgt id='2069'>0.81093E+02</wgt>
<wgt id='2070'>0.81101E+02</wgt>
<wgt id='2071'>0.81097E+02</wgt>
<wgt id='2072'>0.81108E+02</wgt>
<wgt id='2073'>0.81097E+02</wgt>
<wgt id='2074'>0.81086E+02</wgt>
<wgt id='2075'>0.81089E+02</wgt>
<wgt id='2076'>0.81077E+02</wgt>
<wgt id='2077'>0.81144E+02</wgt>
<wgt id='2078'>0.81114E+02</wgt>
<wgt id='2079'>0.81098E+02</wgt>
<wgt id='2080'>0.81123E+02</wgt>
<wgt id='2081'>0.81117E+02</wgt>
<wgt id='2082'>0.81114E+02</wgt>
<wgt id='2083'>0.81122E+02</wgt>
<wgt id='2084'>0.81103E+02</wgt>
<wgt id='2085'>0.81111E+02</wgt>
<wgt id='2086'>0.81083E+02</wgt>
<wgt id='2087'>0.81117E+02</wgt>
<wgt id='2088'>0.81117E+02</wgt>
<wgt id='2089'>0.81094E+02</wgt>
<wgt id='2090'>0.81113E+02</wgt>
<wgt id='2091'>0.81110E+02</wgt>
<wgt id='2092'>0.81136E+02</wgt>
<wgt id='2093'>0.81092E+02</wgt>
<wgt id='2094'>0.81107E+02</wgt>
<wgt id='2095'>0.81123E+02</wgt>
<wgt id='2096'>0.81096E+02</wgt>
<wgt id='2097'>0.81106E+02</wgt>
<wgt id='2098'>0.81103E+02</wgt>
<wgt id='2099'>0.81102E+02</wgt>
<wgt id='2100'>0.81104E+02</wgt>
<wgt id='2101'>0.79237E+02</wgt>
<wgt id='2102'>0.82621E+02</wgt>
<wgt id='2200'>0.81027E+02</wgt>
<wgt id='2201'>0.73201E+02</wgt>
<wgt id='2202'>0.74639E+02</wgt>
<wgt id='2203'>0.76473E+02</wgt>
<wgt id='2204'>0.78078E+02</wgt>
<wgt id='2205'>0.80335E+02</wgt>
<wgt id='2206'>0.81950E+02</wgt>
<wgt id='2207'>0.83874E+02</wgt>
<wgt id='2208'>0.85454E+02</wgt>
<wgt id='2300'>0.84162E+02</wgt>
<wgt id='2301'>0.84266E+02</wgt>
<wgt id='2302'>0.84101E+02</wgt>
<wgt id='2303'>0.84233E+02</wgt>
<wgt id='2304'>0.84323E+02</wgt>
<wgt id='2305'>0.84347E+02</wgt>
<wgt id='2306'>0.84138E+02</wgt>
<wgt id='2307'>0.84378E+02</wgt>
<wgt id='2308'>0.84101E+02</wgt>
<wgt id='2309'>0.84354E+02</wgt>
<wgt id='2310'>0.84015E+02</wgt>
<wgt id='2311'>0.84071E+02</wgt>
<wgt id='2312'>0.84345E+02</wgt>
<wgt id='2313'>0.84137E+02</wgt>
<wgt id='2314'>0.84298E+02</wgt>
<wgt id='2315'>0.84115E+02</wgt>
<wgt id='2316'>0.84194E+02</wgt>
<wgt id='2317'>0.84318E+02</wgt>
<wgt id='2318'>0.84341E+02</wgt>
<wgt id='2319'>0.83985E+02</wgt>
<wgt id='2320'>0.83989E+02</wgt>
<wgt id='2321'>0.83920E+02</wgt>
<wgt id='2322'>0.84138E+02</wgt>
<wgt id='2323'>0.83988E+02</wgt>
<wgt id='2324'>0.83925E+02</wgt>
<wgt id='2325'>0.84213E+02</wgt>
<wgt id='2326'>0.84293E+02</wgt>
<wgt id='2327'>0.84182E+02</wgt>
<wgt id='2328'>0.83863E+02</wgt>
<wgt id='2329'>0.83985E+02</wgt>
<wgt id='2330'>0.84444E+02</wgt>
<wgt id='2331'>0.84292E+02</wgt>
<wgt id='2332'>0.84258E+02</wgt>
<wgt id='2333'>0.84303E+02</wgt>
<wgt id='2334'>0.84228E+02</wgt>
<wgt id='2335'>0.84255E+02</wgt>
<wgt id='2336'>0.84237E+02</wgt>
<wgt id='2337'>0.84104E+02</wgt>
<wgt id='2338'>0.84209E+02</wgt>
<wgt id='2339'>0.84083E+02</wgt>
<wgt id='2340'>0.84217E+02</wgt>
<wgt id='2341'>0.84293E+02</wgt>
<wgt id='2342'>0.84072E+02</wgt>
<wgt id='2343'>0.84019E+02</wgt>
<wgt id='2344'>0.84169E+02</wgt>
<wgt id='2345'>0.84213E+02</wgt>
<wgt id='2346'>0.84277E+02</wgt>
<wgt id='2347'>0.84172E+02</wgt>
<wgt id='2348'>0.84238E+02</wgt>
<wgt id='2349'>0.84147E+02</wgt>
<wgt id='2350'>0.84165E+02</wgt>
<wgt id='2351'>0.84161E+02</wgt>
<wgt id='2352'>0.84078E+02</wgt>
<wgt id='2353'>0.84178E+02</wgt>
<wgt id='2354'>0.84219E+02</wgt>
<wgt id='2355'>0.83942E+02</wgt>
<wgt id='2356'>0.84149E+02</wgt>
<wgt id='2357'>0.84219E+02</wgt>
<wgt id='2358'>0.84070E+02</wgt>
<wgt id='2359'>0.84180E+02</wgt>
<wgt id='2360'>0.84193E+02</wgt>
<wgt id='2361'>0.84212E+02</wgt>
<wgt id='2362'>0.84170E+02</wgt>
<wgt id='2363'>0.84214E+02</wgt>
<wgt id='2364'>0.84168E+02</wgt>
<wgt id='2365'>0.84163E+02</wgt>
<wgt id='2366'>0.84178E+02</wgt>
<wgt id='2367'>0.84165E+02</wgt>
<wgt id='2368'>0.84167E+02</wgt>
<wgt id='2369'>0.84167E+02</wgt>
<wgt id='2370'>0.84179E+02</wgt>
<wgt id='2371'>0.84148E+02</wgt>
<wgt id='2372'>0.84164E+02</wgt>
<wgt id='2373'>0.84123E+02</wgt>
<wgt id='2374'>0.84222E+02</wgt>
<wgt id='2375'>0.84173E+02</wgt>
<wgt id='2376'>0.84186E+02</wgt>
<wgt id='2377'>0.84175E+02</wgt>
<wgt id='2378'>0.84185E+02</wgt>
<wgt id='2379'>0.84134E+02</wgt>
<wgt id='2380'>0.84144E+02</wgt>
<wgt id='2381'>0.84146E+02</wgt>
<wgt id='2382'>0.84132E+02</wgt>
<wgt id='2383'>0.84206E+02</wgt>
<wgt id='2384'>0.84161E+02</wgt>
<wgt id='2385'>0.84180E+02</wgt>
<wgt id='2386'>0.84134E+02</wgt>
<wgt id='2387'>0.84117E+02</wgt>
<wgt id='2388'>0.84181E+02</wgt>
<wgt id='2389'>0.84162E+02</wgt>
<wgt id='2390'>0.84164E+02</wgt>
<wgt id='2391'>0.84159E+02</wgt>
<wgt id='2392'>0.84167E+02</wgt>
<wgt id='2393'>0.84195E+02</wgt>
<wgt id='2394'>0.84174E+02</wgt>
<wgt id='2395'>0.84182E+02</wgt>
<wgt id='2396'>0.84155E+02</wgt>
<wgt id='2397'>0.84164E+02</wgt>
<wgt id='2398'>0.84168E+02</wgt>
<wgt id='2399'>0.84174E+02</wgt>
<wgt id='2400'>0.84178E+02</wgt>
<wgt id='2401'>0.82368E+02</wgt>
<wgt id='2402'>0.85885E+02</wgt>
<wgt id='2500'>0.81137E+02</wgt>
<wgt id='2501'>0.85294E+02</wgt>
<wgt id='2600'>0.78262E+02</wgt>
<wgt id='2601'>0.78212E+02</wgt>
<wgt id='2602'>0.78241E+02</wgt>
<wgt id='2603'>0.78228E+02</wgt>
<wgt id='2604'>0.78344E+02</wgt>
<wgt id='2605'>0.78154E+02</wgt>
<wgt id='2606'>0.78092E+02</wgt>
<wgt id='2607'>0.78408E+02</wgt>
<wgt id='2608'>0.78206E+02</wgt>
<wgt id='2609'>0.78201E+02</wgt>
<wgt id='2610'>0.78219E+02</wgt>
<wgt id='2611'>0.78194E+02</wgt>
<wgt id='2612'>0.78540E+02</wgt>
<wgt id='2613'>0.78237E+02</wgt>
<wgt id='2614'>0.78235E+02</wgt>
<wgt id='2615'>0.78127E+02</wgt>
<wgt id='2616'>0.78240E+02</wgt>
<wgt id='2617'>0.78144E+02</wgt>
<wgt id='2618'>0.78105E+02</wgt>
<wgt id='2619'>0.78308E+02</wgt>
<wgt id='2620'>0.78264E+02</wgt>
<wgt id='2621'>0.78248E+02</wgt>
<wgt id='2622'>0.78355E+02</wgt>
<wgt id='2623'>0.78250E+02</wgt>
<wgt id='2624'>0.78261E+02</wgt>
<wgt id='2625'>0.78215E+02</wgt>
<wgt id='2626'>0.78256E+02</wgt>
<wgt id='2627'>0.78243E+02</wgt>
<wgt id='2628'>0.78269E+02</wgt>
<wgt id='2629'>0.78263E+02</wgt>
<wgt id='2630'>0.78268E+02</wgt>
<wgt id='2631'>0.78250E+02</wgt>
<wgt id='2632'>0.78270E+02</wgt>
<wgt id='2633'>0.78250E+02</wgt>
<wgt id='2634'>0.78260E+02</wgt>
<wgt id='2635'>0.78263E+02</wgt>
<wgt id='2636'>0.78257E+02</wgt>
<wgt id='2637'>0.78255E+02</wgt>
<wgt id='2638'>0.78263E+02</wgt>
<wgt id='2639'>0.78252E+02</wgt>
<wgt id='2640'>0.78265E+02</wgt>
<wgt id='2641'>0.78276E+02</wgt>
<wgt id='2642'>0.78269E+02</wgt>
<wgt id='2643'>0.78253E+02</wgt>
<wgt id='2644'>0.78250E+02</wgt>
<wgt id='2645'>0.78277E+02</wgt>
<wgt id='2646'>0.78271E+02</wgt>
<wgt id='2647'>0.78251E+02</wgt>
<wgt id='2648'>0.78266E+02</wgt>
<wgt id='2649'>0.78262E+02</wgt>
<wgt id='2650'>0.78257E+02</wgt>
<wgt id='2651'>0.77114E+02</wgt>
<wgt id='2652'>0.79312E+02</wgt>
<wgt id='2700'>0.76012E+02</wgt>
<wgt id='2701'>0.77114E+02</wgt>
<wgt id='2702'>0.77728E+02</wgt>
<wgt id='2703'>0.78734E+02</wgt>
<wgt id='2704'>0.79312E+02</wgt>
<wgt id='2705'>0.80338E+02</wgt>
<wgt id='2800'>0.79114E+02</wgt>
<wgt id='4000'>0.79617E+02</wgt>
<wgt id='4001'>0.79937E+02</wgt>
<wgt id='4002'>0.79540E+02</wgt>
<wgt id='4003'>0.79912E+02</wgt>
<wgt id='4004'>0.79283E+02</wgt>
<wgt id='4005'>0.79150E+02</wgt>
<wgt id='4006'>0.79995E+02</wgt>
<wgt id='4007'>0.80493E+02</wgt>
<wgt id='4008'>0.78768E+02</wgt>
<wgt id='4009'>0.80221E+02</wgt>
<wgt id='4010'>0.79130E+02</wgt>
<wgt id='4011'>0.79714E+02</wgt>
<wgt id='4012'>0.79458E+02</wgt>
<wgt id='4013'>0.80041E+02</wgt>
<wgt id='4014'>0.79293E+02</wgt>
<wgt id='4015'>0.79248E+02</wgt>
<wgt id='4016'>0.79848E+02</wgt>
<wgt id='4017'>0.79521E+02</wgt>
<wgt id='4018'>0.79752E+02</wgt>
<wgt id='4019'>0.80127E+02</wgt>
<wgt id='4020'>0.78890E+02</wgt>
<wgt id='4021'>0.79698E+02</wgt>
<wgt id='4022'>0.79462E+02</wgt>
<wgt id='4023'>0.79488E+02</wgt>
<wgt id='4024'>0.79766E+02</wgt>
<wgt id='4025'>0.79875E+02</wgt>
<wgt id='4026'>0.78958E+02</wgt>
<wgt id='4027'>0.79614E+02</wgt>
<wgt id='4028'>0.79667E+02</wgt>
<wgt id='4029'>0.79053E+02</wgt>
<wgt id='4030'>0.79749E+02</wgt>
<wgt id='4031'>0.79459E+02</wgt>
<wgt id='4032'>0.79537E+02</wgt>
<wgt id='4033'>0.79646E+02</wgt>
<wgt id='4034'>0.79448E+02</wgt>
<wgt id='4035'>0.80486E+02</wgt>
<wgt id='4036'>0.78921E+02</wgt>
<wgt id='4037'>0.80658E+02</wgt>
<wgt id='4038'>0.78745E+02</wgt>
<wgt id='4039'>0.80923E+02</wgt>
<wgt id='4040'>0.78277E+02</wgt>
<wgt id='4041'>0.79531E+02</wgt>
<wgt id='4042'>0.79635E+02</wgt>
<wgt id='4043'>0.78694E+02</wgt>
<wgt id='4044'>0.80016E+02</wgt>
<wgt id='4045'>0.81110E+02</wgt>
<wgt id='4046'>0.78914E+02</wgt>
<wgt id='4047'>0.78770E+02</wgt>
<wgt id='4048'>0.80010E+02</wgt>
<wgt id='4049'>0.79503E+02</wgt>
<wgt id='4050'>0.79725E+02</wgt>
<wgt id='4051'>0.80787E+02</wgt>
<wgt id='4052'>0.78536E+02</wgt>
<wgt id='4053'>0.80368E+02</wgt>
<wgt id='4054'>0.78566E+02</wgt>
<wgt id='4055'>0.80045E+02</wgt>
<wgt id='4056'>0.79159E+02</wgt>
<wgt id='4057'>0.78855E+02</wgt>
<wgt id='4058'>0.80133E+02</wgt>
<wgt id='4100'>0.80286E+02</wgt>
<wgt id='4101'>0.79967E+02</wgt>
<wgt id='4102'>0.79240E+02</wgt>
<wgt id='4103'>0.78838E+02</wgt>
<wgt id='4200'>0.76695E+02</wgt>
<wgt id='4201'>0.76817E+02</wgt>
<wgt id='4202'>0.76805E+02</wgt>
<wgt id='4203'>0.76076E+02</wgt>
<wgt id='4204'>0.77146E+02</wgt>
<wgt id='4205'>0.76652E+02</wgt>
<wgt id='4206'>0.76853E+02</wgt>
<wgt id='4207'>0.76589E+02</wgt>
<wgt id='4208'>0.76977E+02</wgt>
<wgt id='4209'>0.76860E+02</wgt>
<wgt id='4210'>0.76711E+02</wgt>
<wgt id='4211'>0.77669E+02</wgt>
<wgt id='4212'>0.75904E+02</wgt>
<wgt id='4213'>0.76852E+02</wgt>
<wgt id='4214'>0.76461E+02</wgt>
<wgt id='4215'>0.76762E+02</wgt>
<wgt id='4216'>0.76309E+02</wgt>
<wgt id='4217'>0.76284E+02</wgt>
<wgt id='4218'>0.76959E+02</wgt>
<wgt id='4219'>0.75758E+02</wgt>
<wgt id='4220'>0.77561E+02</wgt>
<wgt id='4221'>0.76021E+02</wgt>
<wgt id='4222'>0.77350E+02</wgt>
<wgt id='4223'>0.77361E+02</wgt>
<wgt id='4224'>0.75953E+02</wgt>
<wgt id='4225'>0.75399E+02</wgt>
<wgt id='4226'>0.77921E+02</wgt>
<wgt id='4227'>0.77178E+02</wgt>
<wgt id='4228'>0.76287E+02</wgt>
<wgt id='4229'>0.76239E+02</wgt>
<wgt id='4230'>0.77065E+02</wgt>
<wgt id='4231'>0.76769E+02</wgt>
<wgt id='4232'>0.76566E+02</wgt>
<wgt id='4233'>0.77087E+02</wgt>
<wgt id='4234'>0.76169E+02</wgt>
<wgt id='4235'>0.77234E+02</wgt>
<wgt id='4236'>0.76234E+02</wgt>
<wgt id='4237'>0.76784E+02</wgt>
<wgt id='4238'>0.76436E+02</wgt>
<wgt id='4239'>0.77491E+02</wgt>
<wgt id='4240'>0.75428E+02</wgt>
<wgt id='4241'>0.76367E+02</wgt>
<wgt id='4242'>0.77059E+02</wgt>
<wgt id='4243'>0.76702E+02</wgt>
<wgt id='4244'>0.76819E+02</wgt>
<wgt id='4245'>0.75853E+02</wgt>
<wgt id='4246'>0.77515E+02</wgt>
<wgt id='4247'>0.76252E+02</wgt>
<wgt id='4248'>0.76969E+02</wgt>
<wgt id='4249'>0.77694E+02</wgt>
<wgt id='4250'>0.75556E+02</wgt>
<wgt id='4251'>0.76105E+02</wgt>
<wgt id='4252'>0.77021E+02</wgt>
<wgt id='4253'>0.76458E+02</wgt>
<wgt id='4254'>0.76849E+02</wgt>
<wgt id='4255'>0.77016E+02</wgt>
<wgt id='4256'>0.76465E+02</wgt>
<wgt id='4257'>0.75278E+02</wgt>
<wgt id='4258'>0.77106E+02</wgt>
<wgt id='4300'>0.78810E+02</wgt>
<wgt id='4301'>0.78102E+02</wgt>
<wgt id='5000'>0.79279E+02</wgt>
<wgt id='5001'>0.79319E+02</wgt>
<wgt id='5002'>0.79229E+02</wgt>
<wgt id='5003'>0.79298E+02</wgt>
<wgt id='5004'>0.79262E+02</wgt>
<wgt id='5005'>0.79285E+02</wgt>
<wgt id='5006'>0.79271E+02</wgt>
<wgt id='5007'>0.79348E+02</wgt>
<wgt id='5008'>0.79223E+02</wgt>
<wgt id='5009'>0.79387E+02</wgt>
<wgt id='5010'>0.79169E+02</wgt>
<wgt id='5011'>0.79482E+02</wgt>
<wgt id='5012'>0.79084E+02</wgt>
<wgt id='5013'>0.79403E+02</wgt>
<wgt id='5014'>0.79192E+02</wgt>
<wgt id='5015'>0.78885E+02</wgt>
<wgt id='5016'>0.78885E+02</wgt>
<wgt id='5017'>0.79680E+02</wgt>
<wgt id='5018'>0.79009E+02</wgt>
<wgt id='5019'>0.79595E+02</wgt>
<wgt id='5020'>0.78847E+02</wgt>
<wgt id='5021'>0.79373E+02</wgt>
<wgt id='5022'>0.79134E+02</wgt>
<wgt id='5023'>0.79191E+02</wgt>
<wgt id='5024'>0.79492E+02</wgt>
<wgt id='5025'>0.78973E+02</wgt>
<wgt id='5026'>0.79625E+02</wgt>
<wgt id='5027'>0.79313E+02</wgt>
<wgt id='5028'>0.79189E+02</wgt>
<wgt id='5029'>0.79901E+02</wgt>
<wgt id='5030'>0.78927E+02</wgt>
<wgt id='5031'>0.78978E+02</wgt>
<wgt id='5032'>0.80189E+02</wgt>
<wgt id='5033'>0.79265E+02</wgt>
<wgt id='5034'>0.79296E+02</wgt>
<wgt id='5035'>0.79289E+02</wgt>
<wgt id='5036'>0.79269E+02</wgt>
<wgt id='5037'>0.79173E+02</wgt>
<wgt id='5038'>0.79340E+02</wgt>
<wgt id='5039'>0.79477E+02</wgt>
<wgt id='5040'>0.78795E+02</wgt>
<wgt id='5041'>0.79473E+02</wgt>
<wgt id='5042'>0.79106E+02</wgt>
<wgt id='5043'>0.79382E+02</wgt>
<wgt id='5044'>0.79229E+02</wgt>
<wgt id='5045'>0.79203E+02</wgt>
<wgt id='5046'>0.79341E+02</wgt>
<wgt id='5047'>0.79321E+02</wgt>
<wgt id='5048'>0.79099E+02</wgt>
<wgt id='5049'>0.79273E+02</wgt>
<wgt id='5050'>0.79317E+02</wgt>
<wgt id='5051'>0.79395E+02</wgt>
<wgt id='5052'>0.79175E+02</wgt>
<wgt id='5053'>0.79231E+02</wgt>
<wgt id='5054'>0.79366E+02</wgt>
<wgt id='5055'>0.79327E+02</wgt>
<wgt id='5056'>0.79320E+02</wgt>
<wgt id='5057'>0.79028E+02</wgt>
<wgt id='5058'>0.79455E+02</wgt>
<wgt id='5059'>0.79265E+02</wgt>
<wgt id='5060'>0.79322E+02</wgt>
<wgt id='5061'>0.79530E+02</wgt>
<wgt id='5062'>0.79307E+02</wgt>
<wgt id='5063'>0.79564E+02</wgt>
<wgt id='5064'>0.79236E+02</wgt>
<wgt id='5100'>0.79279E+02</wgt>
<wgt id='5101'>0.79292E+02</wgt>
<wgt id='6000'>0.79738E+02</wgt>
<wgt id='6001'>0.79947E+02</wgt>
<wgt id='6002'>0.79863E+02</wgt>
<wgt id='6003'>0.79661E+02</wgt>
<wgt id='6004'>0.79717E+02</wgt>
<wgt id='6005'>0.79501E+02</wgt>
<wgt id='6006'>0.80081E+02</wgt>
<wgt id='6007'>0.79566E+02</wgt>
<wgt id='6008'>0.79082E+02</wgt>
<wgt id='6009'>0.80158E+02</wgt>
<wgt id='6010'>0.78729E+02</wgt>
<wgt id='6011'>0.79749E+02</wgt>
<wgt id='6012'>0.80106E+02</wgt>
<wgt id='6013'>0.79487E+02</wgt>
<wgt id='6014'>0.79660E+02</wgt>
<wgt id='6015'>0.79269E+02</wgt>
<wgt id='6016'>0.79837E+02</wgt>
<wgt id='6017'>0.79759E+02</wgt>
<wgt id='6018'>0.79597E+02</wgt>
<wgt id='6019'>0.79790E+02</wgt>
<wgt id='6020'>0.79935E+02</wgt>
<wgt id='6021'>0.79812E+02</wgt>
<wgt id='6022'>0.79764E+02</wgt>
<wgt id='6023'>0.79779E+02</wgt>
<wgt id='6024'>0.79836E+02</wgt>
<wgt id='6025'>0.80030E+02</wgt>
<wgt id='6026'>0.79789E+02</wgt>
<wgt id='6027'>0.79761E+02</wgt>
<wgt id='6028'>0.79628E+02</wgt>
<wgt id='6029'>0.79627E+02</wgt>
<wgt id='6030'>0.80260E+02</wgt>
<wgt id='6031'>0.79486E+02</wgt>
<wgt id='6032'>0.79835E+02</wgt>
<wgt id='6033'>0.79651E+02</wgt>
<wgt id='6034'>0.80019E+02</wgt>
<wgt id='6035'>0.79771E+02</wgt>
<wgt id='6036'>0.80144E+02</wgt>
<wgt id='6037'>0.79741E+02</wgt>
<wgt id='6038'>0.79785E+02</wgt>
<wgt id='6039'>0.79841E+02</wgt>
<wgt id='6040'>0.79683E+02</wgt>
<wgt id='6041'>0.79010E+02</wgt>
<wgt id='6042'>0.80504E+02</wgt>
<wgt id='7000'>0.78731E+02</wgt>
<wgt id='7001'>0.78440E+02</wgt>
<wgt id='7002'>0.78610E+02</wgt>
<wgt id='7003'>0.78518E+02</wgt>
<wgt id='7004'>0.78533E+02</wgt>
<wgt id='7005'>0.78618E+02</wgt>
<wgt id='7006'>0.78432E+02</wgt>
<wgt id='7007'>0.79012E+02</wgt>
<wgt id='7008'>0.78052E+02</wgt>
<wgt id='7009'>0.78256E+02</wgt>
<wgt id='7010'>0.78805E+02</wgt>
<wgt id='7011'>0.78775E+02</wgt>
<wgt id='7012'>0.78280E+02</wgt>
<wgt id='7013'>0.78449E+02</wgt>
<wgt id='7014'>0.78594E+02</wgt>
<wgt id='7015'>0.78438E+02</wgt>
<wgt id='7016'>0.78403E+02</wgt>
<wgt id='7017'>0.78570E+02</wgt>
<wgt id='7018'>0.78486E+02</wgt>
<wgt id='7019'>0.78479E+02</wgt>
<wgt id='7020'>0.78587E+02</wgt>
<wgt id='7021'>0.78513E+02</wgt>
<wgt id='7022'>0.78519E+02</wgt>
<wgt id='7023'>0.78243E+02</wgt>
<wgt id='7024'>0.78796E+02</wgt>
<wgt id='7025'>0.77677E+02</wgt>
<wgt id='7026'>0.79274E+02</wgt>
<wgt id='7027'>0.78199E+02</wgt>
<wgt id='7028'>0.78913E+02</wgt>
<wgt id='8000'>0.78927E+02</wgt>
<wgt id='8001'>0.78920E+02</wgt>
<wgt id='8002'>0.78952E+02</wgt>
<wgt id='8003'>0.78929E+02</wgt>
<wgt id='8004'>0.78925E+02</wgt>
<wgt id='8005'>0.78767E+02</wgt>
<wgt id='8006'>0.78997E+02</wgt>
<wgt id='8007'>0.79052E+02</wgt>
<wgt id='8008'>0.79091E+02</wgt>
<wgt id='8009'>0.79249E+02</wgt>
<wgt id='8010'>0.78851E+02</wgt>
<wgt id='8011'>0.78950E+02</wgt>
<wgt id='8012'>0.78668E+02</wgt>
<wgt id='8013'>0.78798E+02</wgt>
<wgt id='8014'>0.79086E+02</wgt>
<wgt id='8015'>0.78894E+02</wgt>
<wgt id='8016'>0.78999E+02</wgt>
<wgt id='8017'>0.78986E+02</wgt>
<wgt id='8018'>0.79089E+02</wgt>
<wgt id='8019'>0.79001E+02</wgt>
<wgt id='8020'>0.78846E+02</wgt>
<wgt id='8021'>0.78884E+02</wgt>
<wgt id='8022'>0.78761E+02</wgt>
<wgt id='8023'>0.78887E+02</wgt>
<wgt id='8024'>0.78771E+02</wgt>
<wgt id='8025'>0.78943E+02</wgt>
<wgt id='8026'>0.79033E+02</wgt>
<wgt id='8027'>0.78956E+02</wgt>
<wgt id='8028'>0.79012E+02</wgt>
<wgt id='8029'>0.78772E+02</wgt>
<wgt id='3000'>0.81104E+02</wgt>
<wgt id='3001'>0.81324E+02</wgt>
<wgt id='3002'>0.79912E+02</wgt>
<wgt id='3003'>0.82733E+02</wgt>
<wgt id='3004'>0.81900E+02</wgt>
<wgt id='3005'>0.80703E+02</wgt>
<wgt id='3006'>0.83717E+02</wgt>
<wgt id='3007'>0.80581E+02</wgt>
<wgt id='3008'>0.80222E+02</wgt>
<wgt id='3009'>0.82356E+02</wgt>
<wgt id='3010'>0.83363E+02</wgt>
<wgt id='3011'>0.82359E+02</wgt>
<wgt id='3012'>0.80978E+02</wgt>
<wgt id='3013'>0.80231E+02</wgt>
<wgt id='3014'>0.80187E+02</wgt>
<wgt id='3015'>0.80990E+02</wgt>
<wgt id='3016'>0.82212E+02</wgt>
<wgt id='3017'>0.82478E+02</wgt>
<wgt id='3018'>0.80625E+02</wgt>
<wgt id='3019'>0.79208E+02</wgt>
<wgt id='3020'>0.80276E+02</wgt>
<wgt id='3021'>0.80081E+02</wgt>
<wgt id='3022'>0.79100E+02</wgt>
<wgt id='3023'>0.79145E+02</wgt>
<wgt id='3024'>0.79701E+02</wgt>
<wgt id='3025'>0.80076E+02</wgt>
<wgt id='3026'>0.81119E+02</wgt>
<wgt id='3027'>0.79758E+02</wgt>
<wgt id='3028'>0.81081E+02</wgt>
<wgt id='3029'>0.81766E+02</wgt>
<wgt id='3030'>0.82651E+02</wgt>
<wgt id='3031'>0.82482E+02</wgt>
<wgt id='3032'>0.82286E+02</wgt>
<wgt id='3033'>0.79816E+02</wgt>
<wgt id='3034'>0.80904E+02</wgt>
<wgt id='3035'>0.83274E+02</wgt>
<wgt id='3036'>0.81268E+02</wgt>
<wgt id='3037'>0.81158E+02</wgt>
<wgt id='3038'>0.80733E+02</wgt>
<wgt id='3039'>0.81701E+02</wgt>
<wgt id='3040'>0.81128E+02</wgt>
<wgt id='3041'>0.81997E+02</wgt>
<wgt id='3042'>0.80501E+02</wgt>
<wgt id='3043'>0.80831E+02</wgt>
<wgt id='3044'>0.80734E+02</wgt>
<wgt id='3045'>0.81126E+02</wgt>
<wgt id='3046'>0.81326E+02</wgt>
<wgt id='3047'>0.79245E+02</wgt>
<wgt id='3048'>0.79457E+02</wgt>
<wgt id='3049'>0.81926E+02</wgt>
<wgt id='3050'>0.83297E+02</wgt>
<wgt id='3051'>0.81675E+02</wgt>
<wgt id='3052'>0.80207E+02</wgt>
<wgt id='3053'>0.80767E+02</wgt>
<wgt id='3054'>0.81244E+02</wgt>
<wgt id='3055'>0.79212E+02</wgt>
<wgt id='3056'>0.80716E+02</wgt>
<wgt id='3057'>0.80607E+02</wgt>
<wgt id='3058'>0.79606E+02</wgt>
<wgt id='3059'>0.82616E+02</wgt>
<wgt id='3060'>0.81695E+02</wgt>
<wgt id='3061'>0.81174E+02</wgt>
<wgt id='3062'>0.81391E+02</wgt>
<wgt id='3063'>0.79078E+02</wgt>
<wgt id='3064'>0.80696E+02</wgt>
<wgt id='3065'>0.80376E+02</wgt>
<wgt id='3066'>0.81358E+02</wgt>
<wgt id='3067'>0.79813E+02</wgt>
<wgt id='3068'>0.81149E+02</wgt>
<wgt id='3069'>0.80413E+02</wgt>
<wgt id='3070'>0.79686E+02</wgt>
<wgt id='3071'>0.82075E+02</wgt>
<wgt id='3072'>0.80786E+02</wgt>
<wgt id='3073'>0.81562E+02</wgt>
<wgt id='3074'>0.82216E+02</wgt>
<wgt id='3075'>0.82463E+02</wgt>
<wgt id='3076'>0.82850E+02</wgt>
<wgt id='3077'>0.80256E+02</wgt>
<wgt id='3078'>0.82089E+02</wgt>
<wgt id='3079'>0.80972E+02</wgt>
<wgt id='3080'>0.81043E+02</wgt>
<wgt id='3081'>0.79388E+02</wgt>
<wgt id='3082'>0.82212E+02</wgt>
<wgt id='3083'>0.80844E+02</wgt>
<wgt id='3084'>0.80987E+02</wgt>
<wgt id='3085'>0.82396E+02</wgt>
<wgt id='3086'>0.79491E+02</wgt>
<wgt id='3087'>0.82200E+02</wgt>
<wgt id='3088'>0.82478E+02</wgt>
<wgt id='3089'>0.84019E+02</wgt>
<wgt id='3090'>0.80968E+02</wgt>
<wgt id='3091'>0.80725E+02</wgt>
<wgt id='3092'>0.81895E+02</wgt>
<wgt id='3093'>0.81540E+02</wgt>
<wgt id='3094'>0.80934E+02</wgt>
<wgt id='3095'>0.80861E+02</wgt>
<wgt id='3096'>0.80792E+02</wgt>
<wgt id='3097'>0.80381E+02</wgt>
<wgt id='3098'>0.81632E+02</wgt>
<wgt id='3099'>0.80119E+02</wgt>
<wgt id='3100'>0.80726E+02</wgt>
<wgt id='3200'>0.78273E+02</wgt>
<wgt id='3201'>0.78508E+02</wgt>
<wgt id='3202'>0.77274E+02</wgt>
<wgt id='3203'>0.78168E+02</wgt>
<wgt id='3204'>0.77668E+02</wgt>
<wgt id='3205'>0.78775E+02</wgt>
<wgt id='3206'>0.78796E+02</wgt>
<wgt id='3207'>0.79006E+02</wgt>
<wgt id='3208'>0.78724E+02</wgt>
<wgt id='3209'>0.78156E+02</wgt>
<wgt id='3210'>0.78209E+02</wgt>
<wgt id='3211'>0.78980E+02</wgt>
<wgt id='3212'>0.77553E+02</wgt>
<wgt id='3213'>0.77872E+02</wgt>
<wgt id='3214'>0.77624E+02</wgt>
<wgt id='3215'>0.78150E+02</wgt>
<wgt id='3216'>0.78724E+02</wgt>
<wgt id='3217'>0.78666E+02</wgt>
<wgt id='3218'>0.78614E+02</wgt>
<wgt id='3219'>0.78393E+02</wgt>
<wgt id='3220'>0.77710E+02</wgt>
<wgt id='3221'>0.78923E+02</wgt>
<wgt id='3222'>0.79303E+02</wgt>
<wgt id='3223'>0.78021E+02</wgt>
<wgt id='3224'>0.78122E+02</wgt>
<wgt id='3225'>0.78778E+02</wgt>
<wgt id='3226'>0.78236E+02</wgt>
<wgt id='3227'>0.77546E+02</wgt>
<wgt id='3228'>0.77679E+02</wgt>
<wgt id='3229'>0.78679E+02</wgt>
<wgt id='3230'>0.78593E+02</wgt>
<wgt id='3231'>0.78623E+02</wgt>
<wgt id='3232'>0.78701E+02</wgt>
<wgt id='3233'>0.78529E+02</wgt>
<wgt id='3234'>0.78217E+02</wgt>
<wgt id='3235'>0.77731E+02</wgt>
<wgt id='3236'>0.77685E+02</wgt>
<wgt id='3237'>0.78323E+02</wgt>
<wgt id='3238'>0.78147E+02</wgt>
<wgt id='3239'>0.78058E+02</wgt>
<wgt id='3240'>0.78178E+02</wgt>
<wgt id='3241'>0.79102E+02</wgt>
<wgt id='3242'>0.77545E+02</wgt>
<wgt id='3243'>0.77422E+02</wgt>
<wgt id='3244'>0.78058E+02</wgt>
<wgt id='3245'>0.78755E+02</wgt>
<wgt id='3246'>0.77629E+02</wgt>
<wgt id='3247'>0.78179E+02</wgt>
<wgt id='3248'>0.77920E+02</wgt>
<wgt id='3249'>0.77934E+02</wgt>
<wgt id='3250'>0.78695E+02</wgt>
<wgt id='3251'>0.78130E+02</wgt>
<wgt id='3252'>0.78451E+02</wgt>
<wgt id='3253'>0.78199E+02</wgt>
<wgt id='3254'>0.78181E+02</wgt>
<wgt id='3255'>0.78105E+02</wgt>
<wgt id='3256'>0.77766E+02</wgt>
<wgt id='3257'>0.78315E+02</wgt>
<wgt id='3258'>0.78523E+02</wgt>
<wgt id='3259'>0.78229E+02</wgt>
<wgt id='3260'>0.78205E+02</wgt>
<wgt id='3261'>0.78469E+02</wgt>
<wgt id='3262'>0.78207E+02</wgt>
<wgt id='3263'>0.78828E+02</wgt>
<wgt id='3264'>0.78496E+02</wgt>
<wgt id='3265'>0.78613E+02</wgt>
<wgt id='3266'>0.78323E+02</wgt>
<wgt id='3267'>0.78208E+02</wgt>
<wgt id='3268'>0.78928E+02</wgt>
<wgt id='3269'>0.78383E+02</wgt>
<wgt id='3270'>0.78565E+02</wgt>
<wgt id='3271'>0.78386E+02</wgt>
<wgt id='3272'>0.78573E+02</wgt>
<wgt id='3273'>0.78150E+02</wgt>
<wgt id='3274'>0.78566E+02</wgt>
<wgt id='3275'>0.78526E+02</wgt>
<wgt id='3276'>0.77967E+02</wgt>
<wgt id='3277'>0.77620E+02</wgt>
<wgt id='3278'>0.78172E+02</wgt>
<wgt id='3279'>0.78628E+02</wgt>
<wgt id='3280'>0.78132E+02</wgt>
<wgt id='3281'>0.78558E+02</wgt>
<wgt id='3282'>0.78567E+02</wgt>
<wgt id='3283'>0.78584E+02</wgt>
<wgt id='3284'>0.78235E+02</wgt>
<wgt id='3285'>0.77744E+02</wgt>
<wgt id='3286'>0.78107E+02</wgt>
<wgt id='3287'>0.78055E+02</wgt>
<wgt id='3288'>0.78500E+02</wgt>
<wgt id='3289'>0.79532E+02</wgt>
<wgt id='3290'>0.79090E+02</wgt>
<wgt id='3291'>0.76929E+02</wgt>
<wgt id='3292'>0.77397E+02</wgt>
<wgt id='3293'>0.78081E+02</wgt>
<wgt id='3294'>0.77117E+02</wgt>
<wgt id='3295'>0.77815E+02</wgt>
<wgt id='3296'>0.79136E+02</wgt>
<wgt id='3297'>0.78257E+02</wgt>
<wgt id='3298'>0.78217E+02</wgt>
<wgt id='3299'>0.77831E+02</wgt>
<wgt id='3300'>0.78801E+02</wgt>
<wgt id='3301'>0.77114E+02</wgt>
<wgt id='3302'>0.79312E+02</wgt>
<wgt id='3400'>0.78242E+02</wgt>
<wgt id='3401'>0.78213E+02</wgt>
<wgt id='3402'>0.77737E+02</wgt>
<wgt id='3403'>0.79172E+02</wgt>
<wgt id='3404'>0.79493E+02</wgt>
<wgt id='3405'>0.78902E+02</wgt>
<wgt id='3406'>0.78430E+02</wgt>
<wgt id='3407'>0.77708E+02</wgt>
<wgt id='3408'>0.79599E+02</wgt>
<wgt id='3409'>0.79364E+02</wgt>
<wgt id='3410'>0.78396E+02</wgt>
<wgt id='3411'>0.79036E+02</wgt>
<wgt id='3412'>0.78782E+02</wgt>
<wgt id='3413'>0.77986E+02</wgt>
<wgt id='3414'>0.78073E+02</wgt>
<wgt id='3415'>0.78238E+02</wgt>
<wgt id='3416'>0.77885E+02</wgt>
<wgt id='3417'>0.78545E+02</wgt>
<wgt id='3418'>0.77612E+02</wgt>
<wgt id='3419'>0.77814E+02</wgt>
<wgt id='3420'>0.78491E+02</wgt>
<wgt id='3421'>0.78441E+02</wgt>
<wgt id='3422'>0.78798E+02</wgt>
<wgt id='3423'>0.78825E+02</wgt>
<wgt id='3424'>0.78805E+02</wgt>
<wgt id='3425'>0.78071E+02</wgt>
<wgt id='3426'>0.78574E+02</wgt>
<wgt id='3427'>0.78080E+02</wgt>
<wgt id='3428'>0.78941E+02</wgt>
<wgt id='3429'>0.77753E+02</wgt>
<wgt id='3430'>0.78392E+02</wgt>
<wgt id='3431'>0.78112E+02</wgt>
<wgt id='3432'>0.78277E+02</wgt>
<wgt id='3433'>0.76957E+02</wgt>
<wgt id='3434'>0.78327E+02</wgt>
<wgt id='3435'>0.78450E+02</wgt>
<wgt id='3436'>0.78292E+02</wgt>
<wgt id='3437'>0.78371E+02</wgt>
<wgt id='3438'>0.77442E+02</wgt>
<wgt id='3439'>0.78499E+02</wgt>
<wgt id='3440'>0.78362E+02</wgt>
<wgt id='3441'>0.78140E+02</wgt>
<wgt id='3442'>0.77020E+02</wgt>
<wgt id='3443'>0.77976E+02</wgt>
<wgt id='3444'>0.78020E+02</wgt>
<wgt id='3445'>0.77965E+02</wgt>
<wgt id='3446'>0.78714E+02</wgt>
<wgt id='3447'>0.79441E+02</wgt>
<wgt id='3448'>0.78989E+02</wgt>
<wgt id='3449'>0.78807E+02</wgt>
<wgt id='3450'>0.78269E+02</wgt>
<wgt id='3451'>0.79145E+02</wgt>
<wgt id='3452'>0.77819E+02</wgt>
<wgt id='3453'>0.77561E+02</wgt>
<wgt id='3454'>0.77412E+02</wgt>
<wgt id='3455'>0.79147E+02</wgt>
<wgt id='3456'>0.78555E+02</wgt>
<wgt id='3457'>0.79189E+02</wgt>
<wgt id='3458'>0.78496E+02</wgt>
<wgt id='3459'>0.77844E+02</wgt>
<wgt id='3460'>0.77903E+02</wgt>
<wgt id='3461'>0.77571E+02</wgt>
<wgt id='3462'>0.77678E+02</wgt>
<wgt id='3463'>0.77262E+02</wgt>
<wgt id='3464'>0.78651E+02</wgt>
<wgt id='3465'>0.78208E+02</wgt>
<wgt id='3466'>0.78580E+02</wgt>
<wgt id='3467'>0.77841E+02</wgt>
<wgt id='3468'>0.77363E+02</wgt>
<wgt id='3469'>0.78273E+02</wgt>
<wgt id='3470'>0.78162E+02</wgt>
<wgt id='3471'>0.78298E+02</wgt>
<wgt id='3472'>0.77668E+02</wgt>
<wgt id='3473'>0.78625E+02</wgt>
<wgt id='3474'>0.78148E+02</wgt>
<wgt id='3475'>0.78256E+02</wgt>
<wgt id='3476'>0.78612E+02</wgt>
<wgt id='3477'>0.77384E+02</wgt>
<wgt id='3478'>0.78649E+02</wgt>
<wgt id='3479'>0.78970E+02</wgt>
<wgt id='3480'>0.77889E+02</wgt>
<wgt id='3481'>0.78463E+02</wgt>
<wgt id='3482'>0.77994E+02</wgt>
<wgt id='3483'>0.77046E+02</wgt>
<wgt id='3484'>0.78040E+02</wgt>
<wgt id='3485'>0.77821E+02</wgt>
<wgt id='3486'>0.77102E+02</wgt>
<wgt id='3487'>0.78467E+02</wgt>
<wgt id='3488'>0.78923E+02</wgt>
<wgt id='3489'>0.77573E+02</wgt>
<wgt id='3490'>0.78611E+02</wgt>
<wgt id='3491'>0.78462E+02</wgt>
<wgt id='3492'>0.78379E+02</wgt>
<wgt id='3493'>0.77887E+02</wgt>
<wgt id='3494'>0.76525E+02</wgt>
<wgt id='3495'>0.78356E+02</wgt>
<wgt id='3496'>0.77315E+02</wgt>
<wgt id='3497'>0.77676E+02</wgt>
<wgt id='3498'>0.78572E+02</wgt>
<wgt id='3499'>0.78390E+02</wgt>
<wgt id='3500'>0.78850E+02</wgt>
</rwgt>
</event>
<event>
     13 322200  8.11039E+01  2.16022E+01 -1.00000E+00  1.60855E-01
      21    -1     0     0   503   504  0.000000000E+00  0.000000000E+00  3.519732001E+02  3.519732001E+02  0.000000000E+00  0.00000E+00  9.000E+00
      21    -1     0     0   502   503  0.000000000E+00  0.000000000E+00 -1.279311581E+02  1.279311581E+02  0.000000000E+00  0.00000E+00  9.000E+00
       6     2     1     2   502     0  3.813725687E+01  5.879964040E+01  1.910860981E+01  1.869582156E+02  1.722683585E+02  0.00000E+00  9.000E+00
      -6     2     1     2     0   505 -2.326083147E+01 -4.313609279E+01  1.486132376E+02  2.326251753E+02  1.721243418E+02  0.00000E+00  9.000E+00
      21     1     1     2   505   504 -1.487642539E+01 -1.566354761E+01  5.632019466E+01  6.032096719E+01  0.000000000E+00  0.00000E+00  9.000E+00
      24     2     3     3     0     0  2.865719858E+01  9.522941461E+01 -2.383010294E+01  1.296316371E+02  7.966562053E+01  0.00000E+00  9.000E+00
       5     1     3     3   502     0  9.480058282E+00 -3.642977421E+01  4.293871275E+01  5.732657854E+01  5.060000000E+00  0.00000E+00 -1.000E+00
     -24     2     4     4     0     0 -7.012632689E+01 -2.293813261E+01  4.807388930E+01  1.197619997E+02  8.116636062E+01  0.00000E+00  9.000E+00
      -5     1     4     4     0   505  4.686549542E+01 -2.019796018E+01  1.005393483E+02  1.128631756E+02  5.060000000E+00  0.00000E+00  1.000E+00
     -11     1     6     6     0     0  5.496956757E+01  7.780545825E+01 -1.240558429E+01  9.606893990E+01  5.100000000E-04  0.00000E+00  1.000E+00
      12     1     6     6     0     0 -2.631236899E+01  1.742395636E+01 -1.142451866E+01  3.356269720E+01  0.000000000E+00  0.00000E+00 -1.000E+00
      15     1     8     8     0     0 -4.103426608E+01 -4.354333468E+01 -6.706797477E-02  5.985812572E+01  1.777000000E+00  0.00000E+00 -1.000E+00
     -16     1     8     8     0     0 -2.909206081E+01  2.060520207E+01  4.814095727E+01  5.990387401E+01  0.000000000E+00  0.00000E+00  1.000E+00
#rwgt            1           1   530.49112845138836               10       22863           0
<rwgt>
<wgt id='1001'>0.81104E+02</wgt>
<wgt id='1002'>0.70359E+02</wgt>
<wgt id='1003'>0.92114E+02</wgt>
<wgt id='1004'>0.73856E+02</wgt>
<wgt id='1005'>0.65165E+02</wgt>
<wgt id='1006'>0.82704E+02</wgt>
<wgt id='1007'>0.88238E+02</wgt>
<wgt id='1008'>0.74629E+02</wgt>
<wgt id='1009'>0.10228E+03</wgt>
<wgt id='2000'>0.81104E+02</wgt>
<wgt id='2001'>0.81233E+02</wgt>
<wgt id='2002'>0.80885E+02</wgt>
<wgt id='2003'>0.81014E+02</wgt>
<wgt id='2004'>0.81294E+02</wgt>
<wgt id='2005'>0.81239E+02</wgt>
<wgt id='2006'>0.81312E+02</wgt>
<wgt id='2007'>0.81403E+02</wgt>
<wgt id='2008'>0.81618E+02</wgt>
<wgt id='2009'>0.80978E+02</wgt>
<wgt id='2010'>0.81071E+02</wgt>
<wgt id='2011'>0.80626E+02</wgt>
<wgt id='2012'>0.81343E+02</wgt>
<wgt id='2013'>0.81180E+02</wgt>
<wgt id='2014'>0.81326E+02</wgt>
<wgt id='2015'>0.81253E+02</wgt>
<wgt id='2016'>0.81081E+02</wgt>
<wgt id='2017'>0.81015E+02</wgt>
<wgt id='2018'>0.81132E+02</wgt>
<wgt id='2019'>0.81496E+02</wgt>
<wgt id='2020'>0.80874E+02</wgt>
<wgt id='2021'>0.81124E+02</wgt>
<wgt id='2022'>0.80962E+02</wgt>
<wgt id='2023'>0.81085E+02</wgt>
<wgt id='2024'>0.81094E+02</wgt>
<wgt id='2025'>0.81075E+02</wgt>
<wgt id='2026'>0.81035E+02</wgt>
<wgt id='2027'>0.80854E+02</wgt>
<wgt id='2028'>0.81227E+02</wgt>
<wgt id='2029'>0.80840E+02</wgt>
<wgt id='2030'>0.81045E+02</wgt>
<wgt id='2031'>0.80873E+02</wgt>
<wgt id='2032'>0.81115E+02</wgt>
<wgt id='2033'>0.81021E+02</wgt>
<wgt id='2034'>0.81000E+02</wgt>
<wgt id='2035'>0.81118E+02</wgt>
<wgt id='2036'>0.81260E+02</wgt>
<wgt id='2037'>0.81095E+02</wgt>
<wgt id='2038'>0.81088E+02</wgt>
<wgt id='2039'>0.81099E+02</wgt>
<wgt id='2040'>0.81071E+02</wgt>
<wgt id='2041'>0.81106E+02</wgt>
<wgt id='2042'>0.81129E+02</wgt>
<wgt id='2043'>0.81049E+02</wgt>
<wgt id='2044'>0.81149E+02</wgt>
<wgt id='2045'>0.81130E+02</wgt>
<wgt id='2046'>0.81129E+02</wgt>
<wgt id='2047'>0.81080E+02</wgt>
<wgt id='2048'>0.81072E+02</wgt>
<wgt id='2049'>0.81052E+02</wgt>
<wgt id='2050'>0.81074E+02</wgt>
<wgt id='2051'>0.81093E+02</wgt>
<wgt id='2052'>0.81163E+02</wgt>
<wgt id='2053'>0.81093E+02</wgt>
<wgt id='2054'>0.81104E+02</wgt>
<wgt id='2055'>0.81122E+02</wgt>
<wgt id='2056'>0.81078E+02</wgt>
<wgt id='2057'>0.81133E+02</wgt>
<wgt id='2058'>0.81112E+02</wgt>
<wgt id='2059'>0.81118E+02</wgt>
<wgt id='2060'>0.81104E+02</wgt>
<wgt id='2061'>0.81089E+02</wgt>
<wgt id='2062'>0.81162E+02</wgt>
<wgt id='2063'>0.81120E+02</wgt>
<wgt id='2064'>0.81123E+02</wgt>
<wgt id='2065'>0.81164E+02</wgt>
<wgt id='2066'>0.81109E+02</wgt>
<wgt id='2067'>0.81125E+02</wgt>
<wgt id='2068'>0.81117E+02</wgt>
<wgt id='2069'>0.81112E+02</wgt>
<wgt id='2070'>0.81110E+02</wgt>
<wgt id='2071'>0.81109E+02</wgt>
<wgt id='2072'>0.81106E+02</wgt>
<wgt id='2073'>0.81121E+02</wgt>
<wgt id='2074'>0.81091E+02</wgt>
<wgt id='2075'>0.81092E+02</wgt>
<wgt id='2076'>0.81095E+02</wgt>
<wgt id='2077'>0.81148E+02</wgt>
<wgt id='2078'>0.81109E+02</wgt>
<wgt id='2079'>0.81087E+02</wgt>
<wgt id='2080'>0.81108E+02</wgt>
<wgt id='2081'>0.81092E+02</wgt>
<wgt id='2082'>0.81114E+02</wgt>
<wgt id='2083'>0.81127E+02</wgt>
<wgt id='2084'>0.81114E+02</wgt>
<wgt id='2085'>0.81102E+02</wgt>
<wgt id='2086'>0.81092E+02</wgt>
<wgt id='2087'>0.81113E+02</wgt>
<wgt id='2088'>0.81100E+02</wgt>
<wgt id='2089'>0.81099E+02</wgt>
<wgt id='2090'>0.81117E+02</wgt>
<wgt id='2091'>0.81106E+02</wgt>
<wgt id='2092'>0.81117E+02</wgt>
<wgt id='2093'>0.81091E+02</wgt>
<wgt id='2094'>0.81103E+02</wgt>
<wgt id='2095'>0.81113E+02</wgt>
<wgt id='2096'>0.81096E+02</wgt>
<wgt id='2097'>0.81111E+02</wgt>
<wgt id='2098'>0.81103E+02</wgt>
<wgt id='2099'>0.81114E+02</wgt>
<wgt id='2100'>0.81104E+02</wgt>
<wgt id='2101'>0.79088E+02</wgt>
<wgt id='2102'>0.82953E+02</wgt>
<wgt id='2200'>0.81136E+02</wgt>
<wgt id='2201'>0.72203E+02</wgt>
<wgt id='2202'>0.73822E+02</wgt>
<wgt id='2203'>0.75864E+02</wgt>
<wgt id='2204'>0.77765E+02</wgt>
<wgt id='2205'>0.80374E+02</wgt>
<wgt id='2206'>0.82236E+02</wgt>
<wgt id='2207'>0.84425E+02</wgt>
<wgt id='2208'>0.86231E+02</wgt>
<wgt id='2300'>0.84350E+02</wgt>
<wgt id='2301'>0.84499E+02</wgt>
<wgt id='2302'>0.84249E+02</wgt>
<wgt id='2303'>0.84501E+02</wgt>
<wgt id='2304'>0.84535E+02</wgt>
<wgt id='2305'>0.84646E+02</wgt>
<wgt id='2306'>0.84366E+02</wgt>
<wgt id='2307'>0.84633E+02</wgt>
<wgt id='2308'>0.84230E+02</wgt>
<wgt id='2309'>0.84582E+02</wgt>
<wgt id='2310'>0.84138E+02</wgt>
<wgt id='2311'>0.84272E+02</wgt>
<wgt id='2312'>0.84658E+02</wgt>
<wgt id='2313'>0.84167E+02</wgt>
<wgt id='2314'>0.84608E+02</wgt>
<wgt id='2315'>0.84317E+02</wgt>
<wgt id='2316'>0.84410E+02</wgt>
<wgt id='2317'>0.84608E+02</wgt>
<wgt id='2318'>0.84579E+02</wgt>
<wgt id='2319'>0.84029E+02</wgt>
<wgt id='2320'>0.84102E+02</wgt>
<wgt id='2321'>0.84000E+02</wgt>
<wgt id='2322'>0.84327E+02</wgt>
<wgt id='2323'>0.84153E+02</wgt>
<wgt id='2324'>0.84099E+02</wgt>
<wgt id='2325'>0.84371E+02</wgt>
<wgt id='2326'>0.84508E+02</wgt>
<wgt id='2327'>0.84381E+02</wgt>
<wgt id='2328'>0.84064E+02</wgt>
<wgt id='2329'>0.84246E+02</wgt>
<wgt id='2330'>0.84539E+02</wgt>
<wgt id='2331'>0.84436E+02</wgt>
<wgt id='2332'>0.84434E+02</wgt>
<wgt id='2333'>0.84469E+02</wgt>
<wgt id='2334'>0.84395E+02</wgt>
<wgt id='2335'>0.84487E+02</wgt>
<wgt id='2336'>0.84392E+02</wgt>
<wgt id='2337'>0.84351E+02</wgt>
<wgt id='2338'>0.84356E+02</wgt>
<wgt id='2339'>0.84328E+02</wgt>
<wgt id='2340'>0.84346E+02</wgt>
<wgt id='2341'>0.84384E+02</wgt>
<wgt id='2342'>0.84267E+02</wgt>
<wgt id='2343'>0.84271E+02</wgt>
<wgt id='2344'>0.84374E+02</wgt>
<wgt id='2345'>0.84409E+02</wgt>
<wgt id='2346'>0.84402E+02</wgt>
<wgt id='2347'>0.84337E+02</wgt>
<wgt id='2348'>0.84392E+02</wgt>
<wgt id='2349'>0.84336E+02</wgt>
<wgt id='2350'>0.84339E+02</wgt>
<wgt id='2351'>0.84439E+02</wgt>
<wgt id='2352'>0.84322E+02</wgt>
<wgt id='2353'>0.84326E+02</wgt>
<wgt id='2354'>0.84339E+02</wgt>
<wgt id='2355'>0.84320E+02</wgt>
<wgt id='2356'>0.84364E+02</wgt>
<wgt id='2357'>0.84318E+02</wgt>
<wgt id='2358'>0.84318E+02</wgt>
<wgt id='2359'>0.84347E+02</wgt>
<wgt id='2360'>0.84365E+02</wgt>
<wgt id='2361'>0.84360E+02</wgt>
<wgt id='2362'>0.84362E+02</wgt>
<wgt id='2363'>0.84380E+02</wgt>
<wgt id='2364'>0.84337E+02</wgt>
<wgt id='2365'>0.84356E+02</wgt>
<wgt id='2366'>0.84362E+02</wgt>
<wgt id='2367'>0.84324E+02</wgt>
<wgt id='2368'>0.84352E+02</wgt>
<wgt id='2369'>0.84326E+02</wgt>
<wgt id='2370'>0.84349E+02</wgt>
<wgt id='2371'>0.84349E+02</wgt>
<wgt id='2372'>0.84363E+02</wgt>
<wgt id='2373'>0.84335E+02</wgt>
<wgt id='2374'>0.84382E+02</wgt>
<wgt id='2375'>0.84356E+02</wgt>
<wgt id='2376'>0.84352E+02</wgt>
<wgt id='2377'>0.84354E+02</wgt>
<wgt id='2378'>0.84365E+02</wgt>
<wgt id='2379'>0.84340E+02</wgt>
<wgt id='2380'>0.84334E+02</wgt>
<wgt id='2381'>0.84342E+02</wgt>
<wgt id='2382'>0.84336E+02</wgt>
<wgt id='2383'>0.84359E+02</wgt>
<wgt id='2384'>0.84346E+02</wgt>
<wgt id='2385'>0.84364E+02</wgt>
<wgt id='2386'>0.84359E+02</wgt>
<wgt id='2387'>0.84346E+02</wgt>
<wgt id='2388'>0.84342E+02</wgt>
<wgt id='2389'>0.84354E+02</wgt>
<wgt id='2390'>0.84359E+02</wgt>
<wgt id='2391'>0.84346E+02</wgt>
<wgt id='2392'>0.84343E+02</wgt>
<wgt id='2393'>0.84355E+02</wgt>
<wgt id='2394'>0.84365E+02</wgt>
<wgt id='2395'>0.84351E+02</wgt>
<wgt id='2396'>0.84332E+02</wgt>
<wgt id='2397'>0.84335E+02</wgt>
<wgt id='2398'>0.84336E+02</wgt>
<wgt id='2399'>0.84357E+02</wgt>
<wgt id='2400'>0.84357E+02</wgt>
<wgt id='2401'>0.82397E+02</wgt>
<wgt id='2402'>0.86408E+02</wgt>
<wgt id='2500'>0.80769E+02</wgt>
<wgt id='2501'>0.84829E+02</wgt>
<wgt id='2600'>0.78867E+02</wgt>
<wgt id='2601'>0.78829E+02</wgt>
<wgt id='2602'>0.78860E+02</wgt>
<wgt id='2603'>0.78826E+02</wgt>
<wgt id='2604'>0.79013E+02</wgt>
<wgt id='2605'>0.78748E+02</wgt>
<wgt id='2606'>0.78622E+02</wgt>
<wgt id='2607'>0.79067E+02</wgt>
<wgt id='2608'>0.78745E+02</wgt>
<wgt id='2609'>0.78831E+02</wgt>
<wgt id='2610'>0.78827E+02</wgt>
<wgt id='2611'>0.78803E+02</wgt>
<wgt id='2612'>0.79196E+02</wgt>
<wgt id='2613'>0.78840E+02</wgt>
<wgt id='2614'>0.78865E+02</wgt>
<wgt id='2615'>0.78783E+02</wgt>
<wgt id='2616'>0.78845E+02</wgt>
<wgt id='2617'>0.78786E+02</wgt>
<wgt id='2618'>0.78718E+02</wgt>
<wgt id='2619'>0.78898E+02</wgt>
<wgt id='2620'>0.78900E+02</wgt>
<wgt id='2621'>0.78841E+02</wgt>
<wgt id='2622'>0.78885E+02</wgt>
<wgt id='2623'>0.78865E+02</wgt>
<wgt id='2624'>0.78874E+02</wgt>
<wgt id='2625'>0.78833E+02</wgt>
<wgt id='2626'>0.78862E+02</wgt>
<wgt id='2627'>0.78842E+02</wgt>
<wgt id='2628'>0.78875E+02</wgt>
<wgt id='2629'>0.78866E+02</wgt>
<wgt id='2630'>0.78855E+02</wgt>
<wgt id='2631'>0.78873E+02</wgt>
<wgt id='2632'>0.78864E+02</wgt>
<wgt id='2633'>0.78868E+02</wgt>
<wgt id='2634'>0.78877E+02</wgt>
<wgt id='2635'>0.78858E+02</wgt>
<wgt id='2636'>0.78864E+02</wgt>
<wgt id='2637'>0.78863E+02</wgt>
<wgt id='2638'>0.78864E+02</wgt>
<wgt id='2639'>0.78867E+02</wgt>
<wgt id='2640'>0.78870E+02</wgt>
<wgt id='2641'>0.78863E+02</wgt>
<wgt id='2642'>0.78866E+02</wgt>
<wgt id='2643'>0.78869E+02</wgt>
<wgt id='2644'>0.78867E+02</wgt>
<wgt id='2645'>0.78864E+02</wgt>
<wgt id='2646'>0.78859E+02</wgt>
<wgt id='2647'>0.78869E+02</wgt>
<wgt id='2648'>0.78868E+02</wgt>
<wgt id='2649'>0.78869E+02</wgt>
<wgt id='2650'>0.78867E+02</wgt>
<wgt id='2651'>0.77605E+02</wgt>
<wgt id='2652'>0.80043E+02</wgt>
<wgt id='2700'>0.76375E+02</wgt>
<wgt id='2701'>0.77605E+02</wgt>
<wgt id='2702'>0.78279E+02</wgt>
<wgt id='2703'>0.79384E+02</wgt>
<wgt id='2704'>0.80043E+02</wgt>
<wgt id='2705'>0.81150E+02</wgt>
<wgt id='2800'>0.79946E+02</wgt>
<wgt id='4000'>0.79164E+02</wgt>
<wgt id='4001'>0.79489E+02</wgt>
<wgt id='4002'>0.78982E+02</wgt>
<wgt id='4003'>0.79881E+02</wgt>
<wgt id='4004'>0.78231E+02</wgt>
<wgt id='4005'>0.78650E+02</wgt>
<wgt id='4006'>0.79537E+02</wgt>
<wgt id='4007'>0.80167E+02</wgt>
<wgt id='4008'>0.78145E+02</wgt>
<wgt id='4009'>0.79727E+02</wgt>
<wgt id='4010'>0.78762E+02</wgt>
<wgt id='4011'>0.79389E+02</wgt>
<wgt id='4012'>0.78932E+02</wgt>
<wgt id='4013'>0.79634E+02</wgt>
<wgt id='4014'>0.78711E+02</wgt>
<wgt id='4015'>0.78929E+02</wgt>
<wgt id='4016'>0.78972E+02</wgt>
<wgt id='4017'>0.79053E+02</wgt>
<wgt id='4018'>0.79310E+02</wgt>
<wgt id='4019'>0.79724E+02</wgt>
<wgt id='4020'>0.78238E+02</wgt>
<wgt id='4021'>0.79161E+02</wgt>
<wgt id='4022'>0.79134E+02</wgt>
<wgt id='4023'>0.78617E+02</wgt>
<wgt id='4024'>0.79551E+02</wgt>
<wgt id='4025'>0.79441E+02</wgt>
<wgt id='4026'>0.78418E+02</wgt>
<wgt id='4027'>0.78863E+02</wgt>
<wgt id='4028'>0.79388E+02</wgt>
<wgt id='4029'>0.78006E+02</wgt>
<wgt id='4030'>0.79640E+02</wgt>
<wgt id='4031'>0.79212E+02</wgt>
<wgt id='4032'>0.78323E+02</wgt>
<wgt id='4033'>0.78774E+02</wgt>
<wgt id='4034'>0.79378E+02</wgt>
<wgt id='4035'>0.79887E+02</wgt>
<wgt id='4036'>0.78534E+02</wgt>
<wgt id='4037'>0.79957E+02</wgt>
<wgt id='4038'>0.78394E+02</wgt>
<wgt id='4039'>0.80180E+02</wgt>
<wgt id='4040'>0.78034E+02</wgt>
<wgt id='4041'>0.78958E+02</wgt>
<wgt id='4042'>0.79284E+02</wgt>
<wgt id='4043'>0.78117E+02</wgt>
<wgt id='4044'>0.79737E+02</wgt>
<wgt id='4045'>0.81097E+02</wgt>
<wgt id='4046'>0.78221E+02</wgt>
<wgt id='4047'>0.77942E+02</wgt>
<wgt id='4048'>0.79550E+02</wgt>
<wgt id='4049'>0.78894E+02</wgt>
<wgt id='4050'>0.79300E+02</wgt>
<wgt id='4051'>0.80418E+02</wgt>
<wgt id='4052'>0.77912E+02</wgt>
<wgt id='4053'>0.80092E+02</wgt>
<wgt id='4054'>0.78040E+02</wgt>
<wgt id='4055'>0.79475E+02</wgt>
<wgt id='4056'>0.78697E+02</wgt>
<wgt id='4057'>0.78418E+02</wgt>
<wgt id='4058'>0.79683E+02</wgt>
<wgt id='4100'>0.80111E+02</wgt>
<wgt id='4101'>0.79667E+02</wgt>
<wgt id='4102'>0.78619E+02</wgt>
<wgt id='4103'>0.78045E+02</wgt>
<wgt id='4200'>0.76144E+02</wgt>
<wgt id='4201'>0.76276E+02</wgt>
<wgt id='4202'>0.76170E+02</wgt>
<wgt id='4203'>0.75606E+02</wgt>
<wgt id='4204'>0.76611E+02</wgt>
<wgt id='4205'>0.76136E+02</wgt>
<wgt id='4206'>0.76176E+02</wgt>
<wgt id='4207'>0.75832E+02</wgt>
<wgt id='4208'>0.76360E+02</wgt>
<wgt id='4209'>0.76264E+02</wgt>
<wgt id='4210'>0.76139E+02</wgt>
<wgt id='4211'>0.77074E+02</wgt>
<wgt id='4212'>0.75394E+02</wgt>
<wgt id='4213'>0.76240E+02</wgt>
<wgt id='4214'>0.75979E+02</wgt>
<wgt id='4215'>0.76316E+02</wgt>
<wgt id='4216'>0.75611E+02</wgt>
<wgt id='4217'>0.75773E+02</wgt>
<wgt id='4218'>0.76429E+02</wgt>
<wgt id='4219'>0.75125E+02</wgt>
<wgt id='4220'>0.77009E+02</wgt>
<wgt id='4221'>0.75574E+02</wgt>
<wgt id='4222'>0.76711E+02</wgt>
<wgt id='4223'>0.76937E+02</wgt>
<wgt id='4224'>0.75446E+02</wgt>
<wgt id='4225'>0.74618E+02</wgt>
<wgt id='4226'>0.77419E+02</wgt>
<wgt id='4227'>0.76461E+02</wgt>
<wgt id='4228'>0.75859E+02</wgt>
<wgt id='4229'>0.75897E+02</wgt>
<wgt id='4230'>0.76245E+02</wgt>
<wgt id='4231'>0.75999E+02</wgt>
<wgt id='4232'>0.76292E+02</wgt>
<wgt id='4233'>0.76390E+02</wgt>
<wgt id='4234'>0.75848E+02</wgt>
<wgt id='4235'>0.76424E+02</wgt>
<wgt id='4236'>0.75886E+02</wgt>
<wgt id='4237'>0.76035E+02</wgt>
<wgt id='4238'>0.76179E+02</wgt>
<wgt id='4239'>0.77165E+02</wgt>
<wgt id='4240'>0.74542E+02</wgt>
<wgt id='4241'>0.75610E+02</wgt>
<wgt id='4242'>0.76723E+02</wgt>
<wgt id='4243'>0.76129E+02</wgt>
<wgt id='4244'>0.76225E+02</wgt>
<wgt id='4245'>0.75174E+02</wgt>
<wgt id='4246'>0.77152E+02</wgt>
<wgt id='4247'>0.75898E+02</wgt>
<wgt id='4248'>0.76289E+02</wgt>
<wgt id='4249'>0.77120E+02</wgt>
<wgt id='4250'>0.74947E+02</wgt>
<wgt id='4251'>0.74880E+02</wgt>
<wgt id='4252'>0.76856E+02</wgt>
<wgt id='4253'>0.75610E+02</wgt>
<wgt id='4254'>0.76560E+02</wgt>
<wgt id='4255'>0.76072E+02</wgt>
<wgt id='4256'>0.76026E+02</wgt>
<wgt id='4257'>0.74729E+02</wgt>
<wgt id='4258'>0.76558E+02</wgt>
<wgt id='4300'>0.78386E+02</wgt>
<wgt id='4301'>0.77408E+02</wgt>
<wgt id='5000'>0.78893E+02</wgt>
<wgt id='5001'>0.78919E+02</wgt>
<wgt id='5002'>0.78860E+02</wgt>
<wgt id='5003'>0.78912E+02</wgt>
<wgt id='5004'>0.78876E+02</wgt>
<wgt id='5005'>0.78884E+02</wgt>
<wgt id='5006'>0.78908E+02</wgt>
<wgt id='5007'>0.78937E+02</wgt>
<wgt id='5008'>0.78857E+02</wgt>
<wgt id='5009'>0.78989E+02</wgt>
<wgt id='5010'>0.78794E+02</wgt>
<wgt id='5011'>0.79037E+02</wgt>
<wgt id='5012'>0.78754E+02</wgt>
<wgt id='5013'>0.78993E+02</wgt>
<wgt id='5014'>0.78822E+02</wgt>
<wgt id='5015'>0.78518E+02</wgt>
<wgt id='5016'>0.78518E+02</wgt>
<wgt id='5017'>0.79350E+02</wgt>
<wgt id='5018'>0.78584E+02</wgt>
<wgt id='5019'>0.79213E+02</wgt>
<wgt id='5020'>0.78455E+02</wgt>
<wgt id='5021'>0.78994E+02</wgt>
<wgt id='5022'>0.78735E+02</wgt>
<wgt id='5023'>0.78784E+02</wgt>
<wgt id='5024'>0.79155E+02</wgt>
<wgt id='5025'>0.78549E+02</wgt>
<wgt id='5026'>0.79281E+02</wgt>
<wgt id='5027'>0.78918E+02</wgt>
<wgt id='5028'>0.78825E+02</wgt>
<wgt id='5029'>0.79377E+02</wgt>
<wgt id='5030'>0.78617E+02</wgt>
<wgt id='5031'>0.78680E+02</wgt>
<wgt id='5032'>0.79528E+02</wgt>
<wgt id='5033'>0.78916E+02</wgt>
<wgt id='5034'>0.78869E+02</wgt>
<wgt id='5035'>0.78892E+02</wgt>
<wgt id='5036'>0.78897E+02</wgt>
<wgt id='5037'>0.78843E+02</wgt>
<wgt id='5038'>0.78922E+02</wgt>
<wgt id='5039'>0.79100E+02</wgt>
<wgt id='5040'>0.78385E+02</wgt>
<wgt id='5041'>0.79278E+02</wgt>
<wgt id='5042'>0.78511E+02</wgt>
<wgt id='5043'>0.78953E+02</wgt>
<wgt id='5044'>0.78889E+02</wgt>
<wgt id='5045'>0.78746E+02</wgt>
<wgt id='5046'>0.79012E+02</wgt>
<wgt id='5047'>0.78916E+02</wgt>
<wgt id='5048'>0.78790E+02</wgt>
<wgt id='5049'>0.78867E+02</wgt>
<wgt id='5050'>0.78938E+02</wgt>
<wgt id='5051'>0.79003E+02</wgt>
<wgt id='5052'>0.78778E+02</wgt>
<wgt id='5053'>0.78687E+02</wgt>
<wgt id='5054'>0.79009E+02</wgt>
<wgt id='5055'>0.78970E+02</wgt>
<wgt id='5056'>0.78899E+02</wgt>
<wgt id='5057'>0.78678E+02</wgt>
<wgt id='5058'>0.79043E+02</wgt>
<wgt id='5059'>0.78890E+02</wgt>
<wgt id='5060'>0.78906E+02</wgt>
<wgt id='5061'>0.79071E+02</wgt>
<wgt id='5062'>0.78887E+02</wgt>
<wgt id='5063'>0.79127E+02</wgt>
<wgt id='5064'>0.78839E+02</wgt>
<wgt id='5100'>0.78893E+02</wgt>
<wgt id='5101'>0.78930E+02</wgt>
<wgt id='6000'>0.79167E+02</wgt>
<wgt id='6001'>0.79358E+02</wgt>
<wgt id='6002'>0.79387E+02</wgt>
<wgt id='6003'>0.79160E+02</wgt>
<wgt id='6004'>0.79054E+02</wgt>
<wgt id='6005'>0.79105E+02</wgt>
<wgt id='6006'>0.79427E+02</wgt>
<wgt id='6007'>0.79093E+02</wgt>
<wgt id='6008'>0.78142E+02</wgt>
<wgt id='6009'>0.79454E+02</wgt>
<wgt id='6010'>0.78170E+02</wgt>
<wgt id='6011'>0.79129E+02</wgt>
<wgt id='6012'>0.79403E+02</wgt>
<wgt id='6013'>0.78970E+02</wgt>
<wgt id='6014'>0.79140E+02</wgt>
<wgt id='6015'>0.78716E+02</wgt>
<wgt id='6016'>0.79187E+02</wgt>
<wgt id='6017'>0.79213E+02</wgt>
<wgt id='6018'>0.79103E+02</wgt>
<wgt id='6019'>0.79197E+02</wgt>
<wgt id='6020'>0.79344E+02</wgt>
<wgt id='6021'>0.79244E+02</wgt>
<wgt id='6022'>0.79123E+02</wgt>
<wgt id='6023'>0.79204E+02</wgt>
<wgt id='6024'>0.79229E+02</wgt>
<wgt id='6025'>0.79366E+02</wgt>
<wgt id='6026'>0.79219E+02</wgt>
<wgt id='6027'>0.79202E+02</wgt>
<wgt id='6028'>0.79062E+02</wgt>
<wgt id='6029'>0.79072E+02</wgt>
<wgt id='6030'>0.79859E+02</wgt>
<wgt id='6031'>0.79028E+02</wgt>
<wgt id='6032'>0.79194E+02</wgt>
<wgt id='6033'>0.79072E+02</wgt>
<wgt id='6034'>0.79346E+02</wgt>
<wgt id='6035'>0.79205E+02</wgt>
<wgt id='6036'>0.79516E+02</wgt>
<wgt id='6037'>0.79183E+02</wgt>
<wgt id='6038'>0.79224E+02</wgt>
<wgt id='6039'>0.79264E+02</wgt>
<wgt id='6040'>0.79170E+02</wgt>
<wgt id='6041'>0.78379E+02</wgt>
<wgt id='6042'>0.79947E+02</wgt>
<wgt id='7000'>0.78822E+02</wgt>
<wgt id='7001'>0.78541E+02</wgt>
<wgt id='7002'>0.78698E+02</wgt>
<wgt id='7003'>0.78618E+02</wgt>
<wgt id='7004'>0.78622E+02</wgt>
<wgt id='7005'>0.78750E+02</wgt>
<wgt id='7006'>0.78489E+02</wgt>
<wgt id='7007'>0.79089E+02</wgt>
<wgt id='7008'>0.78164E+02</wgt>
<wgt id='7009'>0.78383E+02</wgt>
<wgt id='7010'>0.78866E+02</wgt>
<wgt id='7011'>0.78877E+02</wgt>
<wgt id='7012'>0.78364E+02</wgt>
<wgt id='7013'>0.78456E+02</wgt>
<wgt id='7014'>0.78776E+02</wgt>
<wgt id='7015'>0.78483E+02</wgt>
<wgt id='7016'>0.78550E+02</wgt>
<wgt id='7017'>0.78641E+02</wgt>
<wgt id='7018'>0.78597E+02</wgt>
<wgt id='7019'>0.78436E+02</wgt>
<wgt id='7020'>0.78809E+02</wgt>
<wgt id='7021'>0.78438E+02</wgt>
<wgt id='7022'>0.78761E+02</wgt>
<wgt id='7023'>0.78475E+02</wgt>
<wgt id='7024'>0.78774E+02</wgt>
<wgt id='7025'>0.77960E+02</wgt>
<wgt id='7026'>0.79178E+02</wgt>
<wgt id='7027'>0.78399E+02</wgt>
<wgt id='7028'>0.78898E+02</wgt>
<wgt id='8000'>0.79470E+02</wgt>
<wgt id='8001'>0.79459E+02</wgt>
<wgt id='8002'>0.79494E+02</wgt>
<wgt id='8003'>0.79474E+02</wgt>
<wgt id='8004'>0.79468E+02</wgt>
<wgt id='8005'>0.79316E+02</wgt>
<wgt id='8006'>0.79516E+02</wgt>
<wgt id='8007'>0.79563E+02</wgt>
<wgt id='8008'>0.79641E+02</wgt>
<wgt id='8009'>0.79795E+02</wgt>
<wgt id='8010'>0.79402E+02</wgt>
<wgt id='8011'>0.79468E+02</wgt>
<wgt id='8012'>0.79220E+02</wgt>
<wgt id='8013'>0.79352E+02</wgt>
<wgt id='8014'>0.79598E+02</wgt>
<wgt id='8015'>0.79424E+02</wgt>
<wgt id='8016'>0.79525E+02</wgt>
<wgt id='8017'>0.79502E+02</wgt>
<wgt id='8018'>0.79599E+02</wgt>
<wgt id='8019'>0.79583E+02</wgt>
<wgt id='8020'>0.79311E+02</wgt>
<wgt id='8021'>0.79436E+02</wgt>
<wgt id='8022'>0.79176E+02</wgt>
<wgt id='8023'>0.79471E+02</wgt>
<wgt id='8024'>0.79398E+02</wgt>
<wgt id='8025'>0.79583E+02</wgt>
<wgt id='8026'>0.79609E+02</wgt>
<wgt id='8027'>0.79449E+02</wgt>
<wgt id='8028'>0.79535E+02</wgt>
<wgt id='8029'>0.79071E+02</wgt>
<wgt id='3000'>0.81104E+02</wgt>
<wgt id='3001'>0.80232E+02</wgt>
<wgt id='3002'>0.80402E+02</wgt>
<wgt id='3003'>0.82904E+02</wgt>
<wgt id='3004'>0.81811E+02</wgt>
<wgt id='3005'>0.80880E+02</wgt>
<wgt id='3006'>0.83165E+02</wgt>
<wgt id='3007'>0.80492E+02</wgt>
<wgt id='3008'>0.80136E+02</wgt>
<wgt id='3009'>0.82416E+02</wgt>
<wgt id='3010'>0.82761E+02</wgt>
<wgt id='3011'>0.82665E+02</wgt>
<wgt id='3012'>0.80918E+02</wgt>
<wgt id='3013'>0.80309E+02</wgt>
<wgt id='3014'>0.79992E+02</wgt>
<wgt id='3015'>0.82303E+02</wgt>
<wgt id='3016'>0.82633E+02</wgt>
<wgt id='3017'>0.82726E+02</wgt>
<wgt id='3018'>0.80710E+02</wgt>
<wgt id='3019'>0.79872E+02</wgt>
<wgt id='3020'>0.81011E+02</wgt>
<wgt id='3021'>0.79475E+02</wgt>
<wgt id='3022'>0.79648E+02</wgt>
<wgt id='3023'>0.79766E+02</wgt>
<wgt id='3024'>0.79514E+02</wgt>
<wgt id='3025'>0.79750E+02</wgt>
<wgt id='3026'>0.80896E+02</wgt>
<wgt id='3027'>0.80197E+02</wgt>
<wgt id='3028'>0.81009E+02</wgt>
<wgt id='3029'>0.82472E+02</wgt>
<wgt id='3030'>0.82966E+02</wgt>
<wgt id='3031'>0.81742E+02</wgt>
<wgt id='3032'>0.82090E+02</wgt>
<wgt id='3033'>0.80235E+02</wgt>
<wgt id='3034'>0.80436E+02</wgt>
<wgt id='3035'>0.82585E+02</wgt>
<wgt id='3036'>0.80871E+02</wgt>
<wgt id='3037'>0.81273E+02</wgt>
<wgt id='3038'>0.80798E+02</wgt>
<wgt id='3039'>0.81630E+02</wgt>
<wgt id='3040'>0.80819E+02</wgt>
<wgt id='3041'>0.81580E+02</wgt>
<wgt id='3042'>0.79954E+02</wgt>
<wgt id='3043'>0.80932E+02</wgt>
<wgt id='3044'>0.80323E+02</wgt>
<wgt id='3045'>0.81277E+02</wgt>
<wgt id='3046'>0.81664E+02</wgt>
<wgt id='3047'>0.79149E+02</wgt>
<wgt id='3048'>0.78995E+02</wgt>
<wgt id='3049'>0.82118E+02</wgt>
<wgt id='3050'>0.82444E+02</wgt>
<wgt id='3051'>0.81161E+02</wgt>
<wgt id='3052'>0.79963E+02</wgt>
<wgt id='3053'>0.80885E+02</wgt>
<wgt id='3054'>0.81183E+02</wgt>
<wgt id='3055'>0.79263E+02</wgt>
<wgt id='3056'>0.80541E+02</wgt>
<wgt id='3057'>0.80564E+02</wgt>
<wgt id='3058'>0.79456E+02</wgt>
<wgt id='3059'>0.83305E+02</wgt>
<wgt id='3060'>0.81366E+02</wgt>
<wgt id='3061'>0.81061E+02</wgt>
<wgt id='3062'>0.80732E+02</wgt>
<wgt id='3063'>0.79167E+02</wgt>
<wgt id='3064'>0.80477E+02</wgt>
<wgt id='3065'>0.80468E+02</wgt>
<wgt id='3066'>0.81289E+02</wgt>
<wgt id='3067'>0.79218E+02</wgt>
<wgt id='3068'>0.82196E+02</wgt>
<wgt id='3069'>0.80414E+02</wgt>
<wgt id='3070'>0.79323E+02</wgt>
<wgt id='3071'>0.82948E+02</wgt>
<wgt id='3072'>0.82068E+02</wgt>
<wgt id='3073'>0.82205E+02</wgt>
<wgt id='3074'>0.82873E+02</wgt>
<wgt id='3075'>0.82476E+02</wgt>
<wgt id='3076'>0.82994E+02</wgt>
<wgt id='3077'>0.80009E+02</wgt>
<wgt id='3078'>0.82159E+02</wgt>
<wgt id='3079'>0.81174E+02</wgt>
<wgt id='3080'>0.80517E+02</wgt>
<wgt id='3081'>0.79050E+02</wgt>
<wgt id='3082'>0.82633E+02</wgt>
<wgt id='3083'>0.80966E+02</wgt>
<wgt id='3084'>0.81234E+02</wgt>
<wgt id='3085'>0.83249E+02</wgt>
<wgt id='3086'>0.78874E+02</wgt>
<wgt id='3087'>0.82123E+02</wgt>
<wgt id='3088'>0.82079E+02</wgt>
<wgt id='3089'>0.83985E+02</wgt>
<wgt id='3090'>0.80444E+02</wgt>
<wgt id='3091'>0.80213E+02</wgt>
<wgt id='3092'>0.82657E+02</wgt>
<wgt id='3093'>0.82025E+02</wgt>
<wgt id='3094'>0.80866E+02</wgt>
<wgt id='3095'>0.80554E+02</wgt>
<wgt id='3096'>0.80410E+02</wgt>
<wgt id='3097'>0.79746E+02</wgt>
<wgt id='3098'>0.81891E+02</wgt>
<wgt id='3099'>0.80462E+02</wgt>
<wgt id='3100'>0.80822E+02</wgt>
<wgt id='3200'>0.78861E+02</wgt>
<wgt id='3201'>0.79154E+02</wgt>
<wgt id='3202'>0.78092E+02</wgt>
<wgt id='3203'>0.78588E+02</wgt>
<wgt id='3204'>0.78359E+02</wgt>
<wgt id='3205'>0.79409E+02</wgt>
<wgt id='3206'>0.79151E+02</wgt>
<wgt id='3207'>0.79443E+02</wgt>
<wgt id='3208'>0.79267E+02</wgt>
<wgt id='3209'>0.78730E+02</wgt>
<wgt id='3210'>0.78825E+02</wgt>
<wgt id='3211'>0.79941E+02</wgt>
<wgt id='3212'>0.77991E+02</wgt>
<wgt id='3213'>0.78340E+02</wgt>
<wgt id='3214'>0.77868E+02</wgt>
<wgt id='3215'>0.78849E+02</wgt>
<wgt id='3216'>0.79158E+02</wgt>
<wgt id='3217'>0.79182E+02</wgt>
<wgt id='3218'>0.78921E+02</wgt>
<wgt id='3219'>0.79064E+02</wgt>
<wgt id='3220'>0.78054E+02</wgt>
<wgt id='3221'>0.79585E+02</wgt>
<wgt id='3222'>0.79486E+02</wgt>
<wgt id='3223'>0.78883E+02</wgt>
<wgt id='3224'>0.78477E+02</wgt>
<wgt id='3225'>0.79294E+02</wgt>
<wgt id='3226'>0.78857E+02</wgt>
<wgt id='3227'>0.78122E+02</wgt>
<wgt id='3228'>0.78220E+02</wgt>
<wgt id='3229'>0.79268E+02</wgt>
<wgt id='3230'>0.79402E+02</wgt>
<wgt id='3231'>0.79122E+02</wgt>
<wgt id='3232'>0.79302E+02</wgt>
<wgt id='3233'>0.79037E+02</wgt>
<wgt id='3234'>0.79182E+02</wgt>
<wgt id='3235'>0.78338E+02</wgt>
<wgt id='3236'>0.78250E+02</wgt>
<wgt id='3237'>0.78526E+02</wgt>
<wgt id='3238'>0.78802E+02</wgt>
<wgt id='3239'>0.78513E+02</wgt>
<wgt id='3240'>0.79134E+02</wgt>
<wgt id='3241'>0.79527E+02</wgt>
<wgt id='3242'>0.78105E+02</wgt>
<wgt id='3243'>0.78067E+02</wgt>
<wgt id='3244'>0.78593E+02</wgt>
<wgt id='3245'>0.79427E+02</wgt>
<wgt id='3246'>0.78424E+02</wgt>
<wgt id='3247'>0.78606E+02</wgt>
<wgt id='3248'>0.78513E+02</wgt>
<wgt id='3249'>0.78790E+02</wgt>
<wgt id='3250'>0.79381E+02</wgt>
<wgt id='3251'>0.78929E+02</wgt>
<wgt id='3252'>0.78874E+02</wgt>
<wgt id='3253'>0.78974E+02</wgt>
<wgt id='3254'>0.78978E+02</wgt>
<wgt id='3255'>0.78834E+02</wgt>
<wgt id='3256'>0.78001E+02</wgt>
<wgt id='3257'>0.78763E+02</wgt>
<wgt id='3258'>0.79333E+02</wgt>
<wgt id='3259'>0.78943E+02</wgt>
<wgt id='3260'>0.78687E+02</wgt>
<wgt id='3261'>0.79136E+02</wgt>
<wgt id='3262'>0.78382E+02</wgt>
<wgt id='3263'>0.78844E+02</wgt>
<wgt id='3264'>0.79297E+02</wgt>
<wgt id='3265'>0.79519E+02</wgt>
<wgt id='3266'>0.78526E+02</wgt>
<wgt id='3267'>0.78832E+02</wgt>
<wgt id='3268'>0.79828E+02</wgt>
<wgt id='3269'>0.78991E+02</wgt>
<wgt id='3270'>0.79101E+02</wgt>
<wgt id='3271'>0.79028E+02</wgt>
<wgt id='3272'>0.79363E+02</wgt>
<wgt id='3273'>0.78989E+02</wgt>
<wgt id='3274'>0.79269E+02</wgt>
<wgt id='3275'>0.78955E+02</wgt>
<wgt id='3276'>0.78877E+02</wgt>
<wgt id='3277'>0.78350E+02</wgt>
<wgt id='3278'>0.78788E+02</wgt>
<wgt id='3279'>0.79369E+02</wgt>
<wgt id='3280'>0.78613E+02</wgt>
<wgt id='3281'>0.78978E+02</wgt>
<wgt id='3282'>0.79268E+02</wgt>
<wgt id='3283'>0.78973E+02</wgt>
<wgt id='3284'>0.78809E+02</wgt>
<wgt id='3285'>0.78211E+02</wgt>
<wgt id='3286'>0.78952E+02</wgt>
<wgt id='3287'>0.78368E+02</wgt>
<wgt id='3288'>0.79446E+02</wgt>
<wgt id='3289'>0.80254E+02</wgt>
<wgt id='3290'>0.79880E+02</wgt>
<wgt id='3291'>0.77693E+02</wgt>
<wgt id='3292'>0.77695E+02</wgt>
<wgt id='3293'>0.78398E+02</wgt>
<wgt id='3294'>0.77708E+02</wgt>
<wgt id='3295'>0.78213E+02</wgt>
<wgt id='3296'>0.79982E+02</wgt>
<wgt id='3297'>0.78740E+02</wgt>
<wgt id='3298'>0.79024E+02</wgt>
<wgt id='3299'>0.78341E+02</wgt>
<wgt id='3300'>0.79210E+02</wgt>
<wgt id='3301'>0.77605E+02</wgt>
<wgt id='3302'>0.80043E+02</wgt>
<wgt id='3400'>0.78783E+02</wgt>
<wgt id='3401'>0.78770E+02</wgt>
<wgt id='3402'>0.78547E+02</wgt>
<wgt id='3403'>0.79763E+02</wgt>
<wgt id='3404'>0.80105E+02</wgt>
<wgt id='3405'>0.79397E+02</wgt>
<wgt id='3406'>0.78939E+02</wgt>
<wgt id='3407'>0.78378E+02</wgt>
<wgt id='3408'>0.80421E+02</wgt>
<wgt id='3409'>0.79717E+02</wgt>
<wgt id='3410'>0.78503E+02</wgt>
<wgt id='3411'>0.79430E+02</wgt>
<wgt id='3412'>0.79648E+02</wgt>
<wgt id='3413'>0.78671E+02</wgt>
<wgt id='3414'>0.78475E+02</wgt>
<wgt id='3415'>0.78774E+02</wgt>
<wgt id='3416'>0.78191E+02</wgt>
<wgt id='3417'>0.79181E+02</wgt>
<wgt id='3418'>0.78281E+02</wgt>
<wgt id='3419'>0.78474E+02</wgt>
<wgt id='3420'>0.79254E+02</wgt>
<wgt id='3421'>0.79036E+02</wgt>
<wgt id='3422'>0.79710E+02</wgt>
<wgt id='3423'>0.79265E+02</wgt>
<wgt id='3424'>0.79099E+02</wgt>
<wgt id='3425'>0.78391E+02</wgt>
<wgt id='3426'>0.79326E+02</wgt>
<wgt id='3427'>0.78777E+02</wgt>
<wgt id='3428'>0.79895E+02</wgt>
<wgt id='3429'>0.78185E+02</wgt>
<wgt id='3430'>0.79397E+02</wgt>
<wgt id='3431'>0.79016E+02</wgt>
<wgt id='3432'>0.78887E+02</wgt>
<wgt id='3433'>0.77353E+02</wgt>
<wgt id='3434'>0.78595E+02</wgt>
<wgt id='3435'>0.78674E+02</wgt>
<wgt id='3436'>0.78952E+02</wgt>
<wgt id='3437'>0.78952E+02</wgt>
<wgt id='3438'>0.78064E+02</wgt>
<wgt id='3439'>0.79357E+02</wgt>
<wgt id='3440'>0.78805E+02</wgt>
<wgt id='3441'>0.78651E+02</wgt>
<wgt id='3442'>0.77144E+02</wgt>
<wgt id='3443'>0.78562E+02</wgt>
<wgt id='3444'>0.78460E+02</wgt>
<wgt id='3445'>0.78381E+02</wgt>
<wgt id='3446'>0.79174E+02</wgt>
<wgt id='3447'>0.80386E+02</wgt>
<wgt id='3448'>0.79388E+02</wgt>
<wgt id='3449'>0.79246E+02</wgt>
<wgt id='3450'>0.78627E+02</wgt>
<wgt id='3451'>0.80054E+02</wgt>
<wgt id='3452'>0.78390E+02</wgt>
<wgt id='3453'>0.78352E+02</wgt>
<wgt id='3454'>0.77815E+02</wgt>
<wgt id='3455'>0.79807E+02</wgt>
<wgt id='3456'>0.79169E+02</wgt>
<wgt id='3457'>0.79407E+02</wgt>
<wgt id='3458'>0.78850E+02</wgt>
<wgt id='3459'>0.78446E+02</wgt>
<wgt id='3460'>0.78432E+02</wgt>
<wgt id='3461'>0.78169E+02</wgt>
<wgt id='3462'>0.78109E+02</wgt>
<wgt id='3463'>0.77862E+02</wgt>
<wgt id='3464'>0.79347E+02</wgt>
<wgt id='3465'>0.78399E+02</wgt>
<wgt id='3466'>0.78974E+02</wgt>
<wgt id='3467'>0.78603E+02</wgt>
<wgt id='3468'>0.77482E+02</wgt>
<wgt id='3469'>0.78871E+02</wgt>
<wgt id='3470'>0.78968E+02</wgt>
<wgt id='3471'>0.78807E+02</wgt>
<wgt id='3472'>0.78267E+02</wgt>
<wgt id='3473'>0.79014E+02</wgt>
<wgt id='3474'>0.78597E+02</wgt>
<wgt id='3475'>0.78529E+02</wgt>
<wgt id='3476'>0.79190E+02</wgt>
<wgt id='3477'>0.77862E+02</wgt>
<wgt id='3478'>0.78897E+02</wgt>
<wgt id='3479'>0.79973E+02</wgt>
<wgt id='3480'>0.78272E+02</wgt>
<wgt id='3481'>0.79139E+02</wgt>
<wgt id='3482'>0.78138E+02</wgt>
<wgt id='3483'>0.77311E+02</wgt>
<wgt id='3484'>0.78515E+02</wgt>
<wgt id='3485'>0.78597E+02</wgt>
<wgt id='3486'>0.77452E+02</wgt>
<wgt id='3487'>0.78872E+02</wgt>
<wgt id='3488'>0.79868E+02</wgt>
<wgt id='3489'>0.77962E+02</wgt>
<wgt id='3490'>0.78773E+02</wgt>
<wgt id='3491'>0.79007E+02</wgt>
<wgt id='3492'>0.79209E+02</wgt>
<wgt id='3493'>0.78306E+02</wgt>
<wgt id='3494'>0.77313E+02</wgt>
<wgt id='3495'>0.78870E+02</wgt>
<wgt id='3496'>0.77668E+02</wgt>
<wgt id='3497'>0.78116E+02</wgt>
<wgt id='3498'>0.79224E+02</wgt>
<wgt id='3499'>0.78871E+02</wgt>
<wgt id='3500'>0.79594E+02</wgt>
</rwgt>
</event>
<event>
     13 322200  8.11039E+01  2.45176E+01 -1.00000E+00  1.56735E-01
       2    -1     0     0   502     0  0.000000000E+00  0.000000000E+00  2.018842347E+03  2.018842347E+03  0.000000000E+00  0.00000E+00  9.000E+00
      -2    -1     0     0     0   512  0.000000000E+00  0.000000000E+00 -3.615003435E+01  3.615003435E+01  0.000000000E+00  0.00000E+00  9.000E+00
       6     2     1     2   502     0 -6.307143686E+01  1.444925118E+02  7.867054315E+02  8.205074921E+02  1.716712459E+02  0.00000E+00  9.000E+00
      -6     2     1     2     0   513  8.722840698E+01 -1.403029587E+02  1.187413158E+03  1.208511436E+03  1.524997248E+02  0.00000E+00  9.000E+00
      21     1     1     2   513   512 -2.415697013E+01 -4.189553070E+00  8.573722548E+00  2.597345335E+01  1.079486029E-06  0.00000E+00  9.000E+00
      24     2     3     3     0     0 -7.461823214E+01  7.365203727E+01  2.940854517E+02  3.226603777E+02  8.143072679E+01  0.00000E+00  9.000E+00
       5     1     3     3   502     0  1.154679528E+01  7.084047449E+01  4.926199798E+02  4.978471145E+02  5.060000000E+00  0.00000E+00 -1.000E+00
     -24     2     4     4     0     0  1.109876650E+02 -1.227261140E+02  8.527801599E+02  8.725377832E+02  8.190373127E+01  0.00000E+00  9.000E+00
      -5     1     4     4     0   513 -2.375925807E+01 -1.757684471E+01  3.346329984E+02  3.359736523E+02  5.060000000E+00  0.00000E+00  1.000E+00
     -15     1     6     6     0     0  1.275099136E+00  2.753281307E+01  1.563915030E+02  1.588116545E+02  1.777000000E+00  0.00000E+00  1.000E+00
      16     1     6     6     0     0 -7.589333127E+01  4.611922421E+01  1.376939487E+02  1.638487231E+02  0.000000000E+00  0.00000E+00 -1.000E+00
      13     1     8     8     0     0  8.494128881E+01 -7.468519582E+01  7.219026862E+02  7.307095185E+02  1.057000000E-01  0.00000E+00 -1.000E+00
     -14     1     8     8     0     0  2.604637624E+01 -4.804091816E+01  1.308774737E+02  1.418282647E+02  0.000000000E+00  0.00000E+00  1.000E+00
#rwgt            1           8   620.87273006157454               10       23331           0
<rwgt>
<wgt id='1001'>0.81104E+02</wgt>
<wgt id='1002'>0.74821E+02</wgt>
<wgt id='1003'>0.87154E+02</wgt>
<wgt id='1004'>0.78484E+02</wgt>
<wgt id='1005'>0.73431E+02</wgt>
<wgt id='1006'>0.83290E+02</wgt>
<wgt id='1007'>0.80463E+02</wgt>
<wgt id='1008'>0.72463E+02</wgt>
<wgt id='1009'>0.88267E+02</wgt>
<wgt id='2000'>0.81104E+02</wgt>
<wgt id='2001'>0.81055E+02</wgt>
<wgt id='2002'>0.81035E+02</wgt>
<wgt id='2003'>0.81107E+02</wgt>
<wgt id='2004'>0.81108E+02</wgt>
<wgt id='2005'>0.81237E+02</wgt>
<wgt id='2006'>0.81022E+02</wgt>
<wgt id='2007'>0.81202E+02</wgt>
<wgt id='2008'>0.80953E+02</wgt>
<wgt id='2009'>0.81306E+02</wgt>
<wgt id='2010'>0.80907E+02</wgt>
<wgt id='2011'>0.81078E+02</wgt>
<wgt id='2012'>0.81039E+02</wgt>
<wgt id='2013'>0.81196E+02</wgt>
<wgt id='2014'>0.81291E+02</wgt>
<wgt id='2015'>0.81231E+02</wgt>
<wgt id='2016'>0.80897E+02</wgt>
<wgt id='2017'>0.81150E+02</wgt>
<wgt id='2018'>0.80745E+02</wgt>
<wgt id='2019'>0.80938E+02</wgt>
<wgt id='2020'>0.80832E+02</wgt>
<wgt id='2021'>0.81100E+02</wgt>
<wgt id='2022'>0.81397E+02</wgt>
<wgt id='2023'>0.80816E+02</wgt>
<wgt id='2024'>0.80969E+02</wgt>
<wgt id='2025'>0.81085E+02</wgt>
<wgt id='2026'>0.81152E+02</wgt>
<wgt id='2027'>0.80885E+02</wgt>
<wgt id='2028'>0.81405E+02</wgt>
<wgt id='2029'>0.81651E+02</wgt>
<wgt id='2030'>0.81140E+02</wgt>
<wgt id='2031'>0.81815E+02</wgt>
<wgt id='2032'>0.81385E+02</wgt>
<wgt id='2033'>0.81107E+02</wgt>
<wgt id='2034'>0.81260E+02</wgt>
<wgt id='2035'>0.80921E+02</wgt>
<wgt id='2036'>0.80705E+02</wgt>
<wgt id='2037'>0.81534E+02</wgt>
<wgt id='2038'>0.81139E+02</wgt>
<wgt id='2039'>0.81118E+02</wgt>
<wgt id='2040'>0.81300E+02</wgt>
<wgt id='2041'>0.81054E+02</wgt>
<wgt id='2042'>0.81099E+02</wgt>
<wgt id='2043'>0.80933E+02</wgt>
<wgt id='2044'>0.81043E+02</wgt>
<wgt id='2045'>0.81100E+02</wgt>
<wgt id='2046'>0.81096E+02</wgt>
<wgt id='2047'>0.80998E+02</wgt>
<wgt id='2048'>0.81115E+02</wgt>
<wgt id='2049'>0.81105E+02</wgt>
<wgt id='2050'>0.81059E+02</wgt>
<wgt id='2051'>0.81102E+02</wgt>
<wgt id='2052'>0.81224E+02</wgt>
<wgt id='2053'>0.80996E+02</wgt>
<wgt id='2054'>0.80991E+02</wgt>
<wgt id='2055'>0.81199E+02</wgt>
<wgt id='2056'>0.81268E+02</wgt>
<wgt id='2057'>0.81079E+02</wgt>
<wgt id='2058'>0.81083E+02</wgt>
<wgt id='2059'>0.81073E+02</wgt>
<wgt id='2060'>0.81048E+02</wgt>
<wgt id='2061'>0.81169E+02</wgt>
<wgt id='2062'>0.81132E+02</wgt>
<wgt id='2063'>0.81147E+02</wgt>
<wgt id='2064'>0.81169E+02</wgt>
<wgt id='2065'>0.80937E+02</wgt>
<wgt id='2066'>0.80902E+02</wgt>
<wgt id='2067'>0.81238E+02</wgt>
<wgt id='2068'>0.81131E+02</wgt>
<wgt id='2069'>0.81183E+02</wgt>
<wgt id='2070'>0.81177E+02</wgt>
<wgt id='2071'>0.81255E+02</wgt>
<wgt id='2072'>0.81081E+02</wgt>
<wgt id='2073'>0.81194E+02</wgt>
<wgt id='2074'>0.81237E+02</wgt>
<wgt id='2075'>0.81156E+02</wgt>
<wgt id='2076'>0.81055E+02</wgt>
<wgt id='2077'>0.81041E+02</wgt>
<wgt id='2078'>0.81150E+02</wgt>
<wgt id='2079'>0.81027E+02</wgt>
<wgt id='2080'>0.81144E+02</wgt>
<wgt id='2081'>0.81050E+02</wgt>
<wgt id='2082'>0.81107E+02</wgt>
<wgt id='2083'>0.81114E+02</wgt>
<wgt id='2084'>0.81135E+02</wgt>
<wgt id='2085'>0.81083E+02</wgt>
<wgt id='2086'>0.81072E+02</wgt>
<wgt id='2087'>0.81109E+02</wgt>
<wgt id='2088'>0.81143E+02</wgt>
<wgt id='2089'>0.81082E+02</wgt>
<wgt id='2090'>0.81144E+02</wgt>
<wgt id='2091'>0.81119E+02</wgt>
<wgt id='2092'>0.81181E+02</wgt>
<wgt id='2093'>0.81063E+02</wgt>
<wgt id='2094'>0.81140E+02</wgt>
<wgt id='2095'>0.81107E+02</wgt>
<wgt id='2096'>0.81115E+02</wgt>
<wgt id='2097'>0.81101E+02</wgt>
<wgt id='2098'>0.81094E+02</wgt>
<wgt id='2099'>0.81120E+02</wgt>
<wgt id='2100'>0.81104E+02</wgt>
<wgt id='2101'>0.78719E+02</wgt>
<wgt id='2102'>0.83696E+02</wgt>
<wgt id='2200'>0.81169E+02</wgt>
<wgt id='2201'>0.69177E+02</wgt>
<wgt id='2202'>0.71192E+02</wgt>
<wgt id='2203'>0.73987E+02</wgt>
<wgt id='2204'>0.76556E+02</wgt>
<wgt id='2205'>0.80122E+02</wgt>
<wgt id='2206'>0.82331E+02</wgt>
<wgt id='2207'>0.86000E+02</wgt>
<wgt id='2208'>0.88276E+02</wgt>
<wgt id='2300'>0.81082E+02</wgt>
<wgt id='2301'>0.81236E+02</wgt>
<wgt id='2302'>0.80907E+02</wgt>
<wgt id='2303'>0.81237E+02</wgt>
<wgt id='2304'>0.81033E+02</wgt>
<wgt id='2305'>0.81202E+02</wgt>
<wgt id='2306'>0.81156E+02</wgt>
<wgt id='2307'>0.81227E+02</wgt>
<wgt id='2308'>0.80900E+02</wgt>
<wgt id='2309'>0.81272E+02</wgt>
<wgt id='2310'>0.80878E+02</wgt>
<wgt id='2311'>0.81071E+02</wgt>
<wgt id='2312'>0.80994E+02</wgt>
<wgt id='2313'>0.81010E+02</wgt>
<wgt id='2314'>0.81486E+02</wgt>
<wgt id='2315'>0.80741E+02</wgt>
<wgt id='2316'>0.81118E+02</wgt>
<wgt id='2317'>0.81071E+02</wgt>
<wgt id='2318'>0.81080E+02</wgt>
<wgt id='2319'>0.80955E+02</wgt>
<wgt id='2320'>0.80642E+02</wgt>
<wgt id='2321'>0.81415E+02</wgt>
<wgt id='2322'>0.81280E+02</wgt>
<wgt id='2323'>0.81445E+02</wgt>
<wgt id='2324'>0.81015E+02</wgt>
<wgt id='2325'>0.80641E+02</wgt>
<wgt id='2326'>0.80982E+02</wgt>
<wgt id='2327'>0.81180E+02</wgt>
<wgt id='2328'>0.81313E+02</wgt>
<wgt id='2329'>0.81546E+02</wgt>
<wgt id='2330'>0.80002E+02</wgt>
<wgt id='2331'>0.80901E+02</wgt>
<wgt id='2332'>0.80988E+02</wgt>
<wgt id='2333'>0.81394E+02</wgt>
<wgt id='2334'>0.81286E+02</wgt>
<wgt id='2335'>0.81279E+02</wgt>
<wgt id='2336'>0.81220E+02</wgt>
<wgt id='2337'>0.80853E+02</wgt>
<wgt id='2338'>0.81171E+02</wgt>
<wgt id='2339'>0.81031E+02</wgt>
<wgt id='2340'>0.81092E+02</wgt>
<wgt id='2341'>0.80984E+02</wgt>
<wgt id='2342'>0.81224E+02</wgt>
<wgt id='2343'>0.80820E+02</wgt>
<wgt id='2344'>0.81170E+02</wgt>
<wgt id='2345'>0.81277E+02</wgt>
<wgt id='2346'>0.81034E+02</wgt>
<wgt id='2347'>0.80841E+02</wgt>
<wgt id='2348'>0.81049E+02</wgt>
<wgt id='2349'>0.81235E+02</wgt>
<wgt id='2350'>0.81028E+02</wgt>
<wgt id='2351'>0.81294E+02</wgt>
<wgt id='2352'>0.81189E+02</wgt>
<wgt id='2353'>0.81087E+02</wgt>
<wgt id='2354'>0.81156E+02</wgt>
<wgt id='2355'>0.80877E+02</wgt>
<wgt id='2356'>0.81337E+02</wgt>
<wgt id='2357'>0.81039E+02</wgt>
<wgt id='2358'>0.81103E+02</wgt>
<wgt id='2359'>0.81166E+02</wgt>
<wgt id='2360'>0.81075E+02</wgt>
<wgt id='2361'>0.81049E+02</wgt>
<wgt id='2362'>0.81003E+02</wgt>
<wgt id='2363'>0.80977E+02</wgt>
<wgt id='2364'>0.80952E+02</wgt>
<wgt id='2365'>0.81095E+02</wgt>
<wgt id='2366'>0.81018E+02</wgt>
<wgt id='2367'>0.81134E+02</wgt>
<wgt id='2368'>0.81126E+02</wgt>
<wgt id='2369'>0.80993E+02</wgt>
<wgt id='2370'>0.81014E+02</wgt>
<wgt id='2371'>0.81040E+02</wgt>
<wgt id='2372'>0.81010E+02</wgt>
<wgt id='2373'>0.81004E+02</wgt>
<wgt id='2374'>0.80999E+02</wgt>
<wgt id='2375'>0.81186E+02</wgt>
<wgt id='2376'>0.81033E+02</wgt>
<wgt id='2377'>0.81169E+02</wgt>
<wgt id='2378'>0.81135E+02</wgt>
<wgt id='2379'>0.80982E+02</wgt>
<wgt id='2380'>0.80923E+02</wgt>
<wgt id='2381'>0.80925E+02</wgt>
<wgt id='2382'>0.81100E+02</wgt>
<wgt id='2383'>0.80997E+02</wgt>
<wgt id='2384'>0.81158E+02</wgt>
<wgt id='2385'>0.81115E+02</wgt>
<wgt id='2386'>0.81026E+02</wgt>
<wgt id='2387'>0.81120E+02</wgt>
<wgt id='2388'>0.81042E+02</wgt>
<wgt id='2389'>0.81066E+02</wgt>
<wgt id='2390'>0.80967E+02</wgt>
<wgt id='2391'>0.81055E+02</wgt>
<wgt id='2392'>0.81082E+02</wgt>
<wgt id='2393'>0.81109E+02</wgt>
<wgt id='2394'>0.81220E+02</wgt>
<wgt id='2395'>0.81031E+02</wgt>
<wgt id='2396'>0.81095E+02</wgt>
<wgt id='2397'>0.81108E+02</wgt>
<wgt id='2398'>0.81074E+02</wgt>
<wgt id='2399'>0.81045E+02</wgt>
<wgt id='2400'>0.81104E+02</wgt>
<wgt id='2401'>0.78646E+02</wgt>
<wgt id='2402'>0.83681E+02</wgt>
<wgt id='2500'>0.79882E+02</wgt>
<wgt id='2501'>0.79070E+02</wgt>
<wgt id='2600'>0.80969E+02</wgt>
<wgt id='2601'>0.80733E+02</wgt>
<wgt id='2602'>0.81108E+02</wgt>
<wgt id='2603'>0.80965E+02</wgt>
<wgt id='2604'>0.81115E+02</wgt>
<wgt id='2605'>0.81078E+02</wgt>
<wgt id='2606'>0.80610E+02</wgt>
<wgt id='2607'>0.80882E+02</wgt>
<wgt id='2608'>0.81226E+02</wgt>
<wgt id='2609'>0.80879E+02</wgt>
<wgt id='2610'>0.80892E+02</wgt>
<wgt id='2611'>0.80776E+02</wgt>
<wgt id='2612'>0.80965E+02</wgt>
<wgt id='2613'>0.80742E+02</wgt>
<wgt id='2614'>0.80865E+02</wgt>
<wgt id='2615'>0.80797E+02</wgt>
<wgt id='2616'>0.80615E+02</wgt>
<wgt id='2617'>0.81274E+02</wgt>
<wgt id='2618'>0.80959E+02</wgt>
<wgt id='2619'>0.80538E+02</wgt>
<wgt id='2620'>0.81037E+02</wgt>
<wgt id='2621'>0.81030E+02</wgt>
<wgt id='2622'>0.80868E+02</wgt>
<wgt id='2623'>0.80988E+02</wgt>
<wgt id='2624'>0.80987E+02</wgt>
<wgt id='2625'>0.80674E+02</wgt>
<wgt id='2626'>0.81085E+02</wgt>
<wgt id='2627'>0.80996E+02</wgt>
<wgt id='2628'>0.81022E+02</wgt>
<wgt id='2629'>0.81070E+02</wgt>
<wgt id='2630'>0.81107E+02</wgt>
<wgt id='2631'>0.81006E+02</wgt>
<wgt id='2632'>0.81012E+02</wgt>
<wgt id='2633'>0.81073E+02</wgt>
<wgt id='2634'>0.80937E+02</wgt>
<wgt id='2635'>0.80911E+02</wgt>
<wgt id='2636'>0.80950E+02</wgt>
<wgt id='2637'>0.80999E+02</wgt>
<wgt id='2638'>0.81029E+02</wgt>
<wgt id='2639'>0.80964E+02</wgt>
<wgt id='2640'>0.80867E+02</wgt>
<wgt id='2641'>0.80935E+02</wgt>
<wgt id='2642'>0.80894E+02</wgt>
<wgt id='2643'>0.81089E+02</wgt>
<wgt id='2644'>0.80977E+02</wgt>
<wgt id='2645'>0.80898E+02</wgt>
<wgt id='2646'>0.81038E+02</wgt>
<wgt id='2647'>0.80913E+02</wgt>
<wgt id='2648'>0.81031E+02</wgt>
<wgt id='2649'>0.80907E+02</wgt>
<wgt id='2650'>0.81005E+02</wgt>
<wgt id='2651'>0.80218E+02</wgt>
<wgt id='2652'>0.81680E+02</wgt>
<wgt id='2700'>0.79293E+02</wgt>
<wgt id='2701'>0.80218E+02</wgt>
<wgt id='2702'>0.80647E+02</wgt>
<wgt id='2703'>0.81338E+02</wgt>
<wgt id='2704'>0.81680E+02</wgt>
<wgt id='2705'>0.82797E+02</wgt>
<wgt id='2800'>0.85231E+02</wgt>
<wgt id='4000'>0.80627E+02</wgt>
<wgt id='4001'>0.80433E+02</wgt>
<wgt id='4002'>0.81177E+02</wgt>
<wgt id='4003'>0.82072E+02</wgt>
<wgt id='4004'>0.78746E+02</wgt>
<wgt id='4005'>0.80047E+02</wgt>
<wgt id='4006'>0.80601E+02</wgt>
<wgt id='4007'>0.78848E+02</wgt>
<wgt id='4008'>0.82191E+02</wgt>
<wgt id='4009'>0.79728E+02</wgt>
<wgt id='4010'>0.81446E+02</wgt>
<wgt id='4011'>0.81088E+02</wgt>
<wgt id='4012'>0.80354E+02</wgt>
<wgt id='4013'>0.80031E+02</wgt>
<wgt id='4014'>0.80791E+02</wgt>
<wgt id='4015'>0.80262E+02</wgt>
<wgt id='4016'>0.80452E+02</wgt>
<wgt id='4017'>0.80519E+02</wgt>
<wgt id='4018'>0.80566E+02</wgt>
<wgt id='4019'>0.81077E+02</wgt>
<wgt id='4020'>0.79486E+02</wgt>
<wgt id='4021'>0.80715E+02</wgt>
<wgt id='4022'>0.80489E+02</wgt>
<wgt id='4023'>0.80582E+02</wgt>
<wgt id='4024'>0.80096E+02</wgt>
<wgt id='4025'>0.80556E+02</wgt>
<wgt id='4026'>0.80845E+02</wgt>
<wgt id='4027'>0.80736E+02</wgt>
<wgt id='4028'>0.80402E+02</wgt>
<wgt id='4029'>0.80844E+02</wgt>
<wgt id='4030'>0.80075E+02</wgt>
<wgt id='4031'>0.80622E+02</wgt>
<wgt id='4032'>0.79959E+02</wgt>
<wgt id='4033'>0.79871E+02</wgt>
<wgt id='4034'>0.81199E+02</wgt>
<wgt id='4035'>0.81023E+02</wgt>
<wgt id='4036'>0.80426E+02</wgt>
<wgt id='4037'>0.81029E+02</wgt>
<wgt id='4038'>0.79819E+02</wgt>
<wgt id='4039'>0.81593E+02</wgt>
<wgt id='4040'>0.79412E+02</wgt>
<wgt id='4041'>0.81257E+02</wgt>
<wgt id='4042'>0.79969E+02</wgt>
<wgt id='4043'>0.79494E+02</wgt>
<wgt id='4044'>0.81813E+02</wgt>
<wgt id='4045'>0.81071E+02</wgt>
<wgt id='4046'>0.80386E+02</wgt>
<wgt id='4047'>0.81502E+02</wgt>
<wgt id='4048'>0.79623E+02</wgt>
<wgt id='4049'>0.79617E+02</wgt>
<wgt id='4050'>0.81617E+02</wgt>
<wgt id='4051'>0.82064E+02</wgt>
<wgt id='4052'>0.78907E+02</wgt>
<wgt id='4053'>0.80771E+02</wgt>
<wgt id='4054'>0.80697E+02</wgt>
<wgt id='4055'>0.81018E+02</wgt>
<wgt id='4056'>0.80547E+02</wgt>
<wgt id='4057'>0.80604E+02</wgt>
<wgt id='4058'>0.80703E+02</wgt>
<wgt id='4100'>0.81171E+02</wgt>
<wgt id='4101'>0.80905E+02</wgt>
<wgt id='4102'>0.80350E+02</wgt>
<wgt id='4103'>0.80079E+02</wgt>
<wgt id='4200'>0.80288E+02</wgt>
<wgt id='4201'>0.80737E+02</wgt>
<wgt id='4202'>0.79951E+02</wgt>
<wgt id='4203'>0.81325E+02</wgt>
<wgt id='4204'>0.79309E+02</wgt>
<wgt id='4205'>0.80892E+02</wgt>
<wgt id='4206'>0.79546E+02</wgt>
<wgt id='4207'>0.79667E+02</wgt>
<wgt id='4208'>0.80239E+02</wgt>
<wgt id='4209'>0.80276E+02</wgt>
<wgt id='4210'>0.80045E+02</wgt>
<wgt id='4211'>0.80177E+02</wgt>
<wgt id='4212'>0.80266E+02</wgt>
<wgt id='4213'>0.81034E+02</wgt>
<wgt id='4214'>0.79005E+02</wgt>
<wgt id='4215'>0.80152E+02</wgt>
<wgt id='4216'>0.80547E+02</wgt>
<wgt id='4217'>0.80770E+02</wgt>
<wgt id='4218'>0.80014E+02</wgt>
<wgt id='4219'>0.80335E+02</wgt>
<wgt id='4220'>0.80407E+02</wgt>
<wgt id='4221'>0.79930E+02</wgt>
<wgt id='4222'>0.80852E+02</wgt>
<wgt id='4223'>0.80329E+02</wgt>
<wgt id='4224'>0.80667E+02</wgt>
<wgt id='4225'>0.80063E+02</wgt>
<wgt id='4226'>0.80136E+02</wgt>
<wgt id='4227'>0.80464E+02</wgt>
<wgt id='4228'>0.80155E+02</wgt>
<wgt id='4229'>0.80862E+02</wgt>
<wgt id='4230'>0.79547E+02</wgt>
<wgt id='4231'>0.81237E+02</wgt>
<wgt id='4232'>0.78860E+02</wgt>
<wgt id='4233'>0.80358E+02</wgt>
<wgt id='4234'>0.80344E+02</wgt>
<wgt id='4235'>0.79777E+02</wgt>
<wgt id='4236'>0.80562E+02</wgt>
<wgt id='4237'>0.81290E+02</wgt>
<wgt id='4238'>0.79624E+02</wgt>
<wgt id='4239'>0.80801E+02</wgt>
<wgt id='4240'>0.80052E+02</wgt>
<wgt id='4241'>0.81049E+02</wgt>
<wgt id='4242'>0.79520E+02</wgt>
<wgt id='4243'>0.80025E+02</wgt>
<wgt id='4244'>0.80588E+02</wgt>
<wgt id='4245'>0.78710E+02</wgt>
<wgt id='4246'>0.81953E+02</wgt>
<wgt id='4247'>0.80633E+02</wgt>
<wgt id='4248'>0.80100E+02</wgt>
<wgt id='4249'>0.80806E+02</wgt>
<wgt id='4250'>0.79727E+02</wgt>
<wgt id='4251'>0.79565E+02</wgt>
<wgt id='4252'>0.80720E+02</wgt>
<wgt id='4253'>0.79865E+02</wgt>
<wgt id='4254'>0.80865E+02</wgt>
<wgt id='4255'>0.80578E+02</wgt>
<wgt id='4256'>0.79698E+02</wgt>
<wgt id='4257'>0.79858E+02</wgt>
<wgt id='4258'>0.80425E+02</wgt>
<wgt id='4300'>0.78857E+02</wgt>
<wgt id='4301'>0.80778E+02</wgt>
<wgt id='5000'>0.78444E+02</wgt>
<wgt id='5001'>0.78588E+02</wgt>
<wgt id='5002'>0.78260E+02</wgt>
<wgt id='5003'>0.78143E+02</wgt>
<wgt id='5004'>0.78718E+02</wgt>
<wgt id='5005'>0.78288E+02</wgt>
<wgt id='5006'>0.78700E+02</wgt>
<wgt id='5007'>0.78550E+02</wgt>
<wgt id='5008'>0.78358E+02</wgt>
<wgt id='5009'>0.78367E+02</wgt>
<wgt id='5010'>0.78524E+02</wgt>
<wgt id='5011'>0.78375E+02</wgt>
<wgt id='5012'>0.78511E+02</wgt>
<wgt id='5013'>0.78844E+02</wgt>
<wgt id='5014'>0.78159E+02</wgt>
<wgt id='5015'>0.78817E+02</wgt>
<wgt id='5016'>0.78817E+02</wgt>
<wgt id='5017'>0.77982E+02</wgt>
<wgt id='5018'>0.78759E+02</wgt>
<wgt id='5019'>0.78062E+02</wgt>
<wgt id='5020'>0.78975E+02</wgt>
<wgt id='5021'>0.78393E+02</wgt>
<wgt id='5022'>0.78497E+02</wgt>
<wgt id='5023'>0.78421E+02</wgt>
<wgt id='5024'>0.78500E+02</wgt>
<wgt id='5025'>0.78479E+02</wgt>
<wgt id='5026'>0.78405E+02</wgt>
<wgt id='5027'>0.78358E+02</wgt>
<wgt id='5028'>0.78675E+02</wgt>
<wgt id='5029'>0.77754E+02</wgt>
<wgt id='5030'>0.78824E+02</wgt>
<wgt id='5031'>0.78567E+02</wgt>
<wgt id='5032'>0.78024E+02</wgt>
<wgt id='5033'>0.78597E+02</wgt>
<wgt id='5034'>0.78276E+02</wgt>
<wgt id='5035'>0.78714E+02</wgt>
<wgt id='5036'>0.78085E+02</wgt>
<wgt id='5037'>0.78829E+02</wgt>
<wgt id='5038'>0.78227E+02</wgt>
<wgt id='5039'>0.78396E+02</wgt>
<wgt id='5040'>0.78571E+02</wgt>
<wgt id='5041'>0.78662E+02</wgt>
<wgt id='5042'>0.78220E+02</wgt>
<wgt id='5043'>0.77525E+02</wgt>
<wgt id='5044'>0.79284E+02</wgt>
<wgt id='5045'>0.78244E+02</wgt>
<wgt id='5046'>0.78747E+02</wgt>
<wgt id='5047'>0.78429E+02</wgt>
<wgt id='5048'>0.78582E+02</wgt>
<wgt id='5049'>0.78624E+02</wgt>
<wgt id='5050'>0.78161E+02</wgt>
<wgt id='5051'>0.78566E+02</wgt>
<wgt id='5052'>0.78319E+02</wgt>
<wgt id='5053'>0.78035E+02</wgt>
<wgt id='5054'>0.78646E+02</wgt>
<wgt id='5055'>0.78436E+02</wgt>
<wgt id='5056'>0.78192E+02</wgt>
<wgt id='5057'>0.78310E+02</wgt>
<wgt id='5058'>0.78514E+02</wgt>
<wgt id='5059'>0.78469E+02</wgt>
<wgt id='5060'>0.78429E+02</wgt>
<wgt id='5061'>0.78351E+02</wgt>
<wgt id='5062'>0.78291E+02</wgt>
<wgt id='5063'>0.78818E+02</wgt>
<wgt id='5064'>0.78609E+02</wgt>
<wgt id='5100'>0.78444E+02</wgt>
<wgt id='5101'>0.78486E+02</wgt>
<wgt id='6000'>0.79381E+02</wgt>
<wgt id='6001'>0.79494E+02</wgt>
<wgt id='6002'>0.78056E+02</wgt>
<wgt id='6003'>0.79231E+02</wgt>
<wgt id='6004'>0.79269E+02</wgt>
<wgt id='6005'>0.79490E+02</wgt>
<wgt id='6006'>0.78587E+02</wgt>
<wgt id='6007'>0.79490E+02</wgt>
<wgt id='6008'>0.78667E+02</wgt>
<wgt id='6009'>0.79681E+02</wgt>
<wgt id='6010'>0.79250E+02</wgt>
<wgt id='6011'>0.79441E+02</wgt>
<wgt id='6012'>0.79568E+02</wgt>
<wgt id='6013'>0.79368E+02</wgt>
<wgt id='6014'>0.79589E+02</wgt>
<wgt id='6015'>0.79625E+02</wgt>
<wgt id='6016'>0.79597E+02</wgt>
<wgt id='6017'>0.79537E+02</wgt>
<wgt id='6018'>0.79694E+02</wgt>
<wgt id='6019'>0.79451E+02</wgt>
<wgt id='6020'>0.79486E+02</wgt>
<wgt id='6021'>0.79289E+02</wgt>
<wgt id='6022'>0.79300E+02</wgt>
<wgt id='6023'>0.79424E+02</wgt>
<wgt id='6024'>0.79370E+02</wgt>
<wgt id='6025'>0.78714E+02</wgt>
<wgt id='6026'>0.79506E+02</wgt>
<wgt id='6027'>0.79333E+02</wgt>
<wgt id='6028'>0.79384E+02</wgt>
<wgt id='6029'>0.79463E+02</wgt>
<wgt id='6030'>0.79594E+02</wgt>
<wgt id='6031'>0.79345E+02</wgt>
<wgt id='6032'>0.79450E+02</wgt>
<wgt id='6033'>0.79452E+02</wgt>
<wgt id='6034'>0.79422E+02</wgt>
<wgt id='6035'>0.79480E+02</wgt>
<wgt id='6036'>0.79374E+02</wgt>
<wgt id='6037'>0.79386E+02</wgt>
<wgt id='6038'>0.79352E+02</wgt>
<wgt id='6039'>0.79410E+02</wgt>
<wgt id='6040'>0.79251E+02</wgt>
<wgt id='6041'>0.78399E+02</wgt>
<wgt id='6042'>0.80718E+02</wgt>
<wgt id='7000'>0.90442E+02</wgt>
<wgt id='7001'>0.90522E+02</wgt>
<wgt id='7002'>0.90343E+02</wgt>
<wgt id='7003'>0.90373E+02</wgt>
<wgt id='7004'>0.90492E+02</wgt>
<wgt id='7005'>0.90144E+02</wgt>
<wgt id='7006'>0.90720E+02</wgt>
<wgt id='7007'>0.90161E+02</wgt>
<wgt id='7008'>0.90694E+02</wgt>
<wgt id='7009'>0.91052E+02</wgt>
<wgt id='7010'>0.89813E+02</wgt>
<wgt id='7011'>0.90871E+02</wgt>
<wgt id='7012'>0.89994E+02</wgt>
<wgt id='7013'>0.90454E+02</wgt>
<wgt id='7014'>0.90411E+02</wgt>
<wgt id='7015'>0.90362E+02</wgt>
<wgt id='7016'>0.90528E+02</wgt>
<wgt id='7017'>0.90518E+02</wgt>
<wgt id='7018'>0.90336E+02</wgt>
<wgt id='7019'>0.90198E+02</wgt>
<wgt id='7020'>0.90666E+02</wgt>
<wgt id='7021'>0.89872E+02</wgt>
<wgt id='7022'>0.90963E+02</wgt>
<wgt id='7023'>0.90171E+02</wgt>
<wgt id='7024'>0.90431E+02</wgt>
<wgt id='7025'>0.90377E+02</wgt>
<wgt id='7026'>0.90147E+02</wgt>
<wgt id='7027'>0.90033E+02</wgt>
<wgt id='7028'>0.90732E+02</wgt>
<wgt id='8000'>0.83428E+02</wgt>
<wgt id='8001'>0.83415E+02</wgt>
<wgt id='8002'>0.83341E+02</wgt>
<wgt id='8003'>0.83517E+02</wgt>
<wgt id='8004'>0.83428E+02</wgt>
<wgt id='8005'>0.83415E+02</wgt>
<wgt id='8006'>0.83329E+02</wgt>
<wgt id='8007'>0.83512E+02</wgt>
<wgt id='8008'>0.82986E+02</wgt>
<wgt id='8009'>0.83275E+02</wgt>
<wgt id='8010'>0.83406E+02</wgt>
<wgt id='8011'>0.83318E+02</wgt>
<wgt id='8012'>0.83547E+02</wgt>
<wgt id='8013'>0.83489E+02</wgt>
<wgt id='8014'>0.83293E+02</wgt>
<wgt id='8015'>0.83431E+02</wgt>
<wgt id='8016'>0.83311E+02</wgt>
<wgt id='8017'>0.83283E+02</wgt>
<wgt id='8018'>0.83208E+02</wgt>
<wgt id='8019'>0.83436E+02</wgt>
<wgt id='8020'>0.83012E+02</wgt>
<wgt id='8021'>0.83220E+02</wgt>
<wgt id='8022'>0.83355E+02</wgt>
<wgt id='8023'>0.83366E+02</wgt>
<wgt id='8024'>0.83593E+02</wgt>
<wgt id='8025'>0.83546E+02</wgt>
<wgt id='8026'>0.83179E+02</wgt>
<wgt id='8027'>0.83188E+02</wgt>
<wgt id='8028'>0.83631E+02</wgt>
<wgt id='8029'>0.82951E+02</wgt>
<wgt id='3000'>0.81104E+02</wgt>
<wgt id='3001'>0.83032E+02</wgt>
<wgt id='3002'>0.80332E+02</wgt>
<wgt id='3003'>0.80119E+02</wgt>
<wgt id='3004'>0.79018E+02</wgt>
<wgt id='3005'>0.79825E+02</wgt>
<wgt id='3006'>0.82429E+02</wgt>
<wgt id='3007'>0.81138E+02</wgt>
<wgt id='3008'>0.81690E+02</wgt>
<wgt id='3009'>0.80460E+02</wgt>
<wgt id='3010'>0.76042E+02</wgt>
<wgt id='3011'>0.80962E+02</wgt>
<wgt id='3012'>0.80396E+02</wgt>
<wgt id='3013'>0.78990E+02</wgt>
<wgt id='3014'>0.82777E+02</wgt>
<wgt id='3015'>0.82525E+02</wgt>
<wgt id='3016'>0.81185E+02</wgt>
<wgt id='3017'>0.82559E+02</wgt>
<wgt id='3018'>0.80767E+02</wgt>
<wgt id='3019'>0.81208E+02</wgt>
<wgt id='3020'>0.79106E+02</wgt>
<wgt id='3021'>0.81637E+02</wgt>
<wgt id='3022'>0.83215E+02</wgt>
<wgt id='3023'>0.83149E+02</wgt>
<wgt id='3024'>0.79748E+02</wgt>
<wgt id='3025'>0.82770E+02</wgt>
<wgt id='3026'>0.83525E+02</wgt>
<wgt id='3027'>0.80267E+02</wgt>
<wgt id='3028'>0.81515E+02</wgt>
<wgt id='3029'>0.81205E+02</wgt>
<wgt id='3030'>0.80224E+02</wgt>
<wgt id='3031'>0.84094E+02</wgt>
<wgt id='3032'>0.79865E+02</wgt>
<wgt id='3033'>0.83243E+02</wgt>
<wgt id='3034'>0.80122E+02</wgt>
<wgt id='3035'>0.81437E+02</wgt>
<wgt id='3036'>0.82406E+02</wgt>
<wgt id='3037'>0.79922E+02</wgt>
<wgt id='3038'>0.80726E+02</wgt>
<wgt id='3039'>0.78497E+02</wgt>
<wgt id='3040'>0.83065E+02</wgt>
<wgt id='3041'>0.82004E+02</wgt>
<wgt id='3042'>0.80911E+02</wgt>
<wgt id='3043'>0.80715E+02</wgt>
<wgt id='3044'>0.82052E+02</wgt>
<wgt id='3045'>0.81069E+02</wgt>
<wgt id='3046'>0.81438E+02</wgt>
<wgt id='3047'>0.82201E+02</wgt>
<wgt id='3048'>0.81694E+02</wgt>
<wgt id='3049'>0.82566E+02</wgt>
<wgt id='3050'>0.80997E+02</wgt>
<wgt id='3051'>0.79508E+02</wgt>
<wgt id='3052'>0.81657E+02</wgt>
<wgt id='3053'>0.81207E+02</wgt>
<wgt id='3054'>0.82437E+02</wgt>
<wgt id='3055'>0.84176E+02</wgt>
<wgt id='3056'>0.79284E+02</wgt>
<wgt id='3057'>0.81836E+02</wgt>
<wgt id='3058'>0.81493E+02</wgt>
<wgt id='3059'>0.82441E+02</wgt>
<wgt id='3060'>0.84741E+02</wgt>
<wgt id='3061'>0.80641E+02</wgt>
<wgt id='3062'>0.80740E+02</wgt>
<wgt id='3063'>0.80956E+02</wgt>
<wgt id='3064'>0.82085E+02</wgt>
<wgt id='3065'>0.84064E+02</wgt>
<wgt id='3066'>0.81667E+02</wgt>
<wgt id='3067'>0.81781E+02</wgt>
<wgt id='3068'>0.80830E+02</wgt>
<wgt id='3069'>0.80876E+02</wgt>
<wgt id='3070'>0.80210E+02</wgt>
<wgt id='3071'>0.80255E+02</wgt>
<wgt id='3072'>0.76487E+02</wgt>
<wgt id='3073'>0.79278E+02</wgt>
<wgt id='3074'>0.79804E+02</wgt>
<wgt id='3075'>0.79154E+02</wgt>
<wgt id='3076'>0.83682E+02</wgt>
<wgt id='3077'>0.78292E+02</wgt>
<wgt id='3078'>0.83578E+02</wgt>
<wgt id='3079'>0.81523E+02</wgt>
<wgt id='3080'>0.79183E+02</wgt>
<wgt id='3081'>0.80821E+02</wgt>
<wgt id='3082'>0.81185E+02</wgt>
<wgt id='3083'>0.81031E+02</wgt>
<wgt id='3084'>0.80500E+02</wgt>
<wgt id='3085'>0.81905E+02</wgt>
<wgt id='3086'>0.79979E+02</wgt>
<wgt id='3087'>0.80401E+02</wgt>
<wgt id='3088'>0.80739E+02</wgt>
<wgt id='3089'>0.77655E+02</wgt>
<wgt id='3090'>0.82102E+02</wgt>
<wgt id='3091'>0.82870E+02</wgt>
<wgt id='3092'>0.81475E+02</wgt>
<wgt id='3093'>0.80660E+02</wgt>
<wgt id='3094'>0.80087E+02</wgt>
<wgt id='3095'>0.78957E+02</wgt>
<wgt id='3096'>0.83109E+02</wgt>
<wgt id='3097'>0.80676E+02</wgt>
<wgt id='3098'>0.79930E+02</wgt>
<wgt id='3099'>0.80874E+02</wgt>
<wgt id='3100'>0.80562E+02</wgt>
<wgt id='3200'>0.80959E+02</wgt>
<wgt id='3201'>0.80362E+02</wgt>
<wgt id='3202'>0.81158E+02</wgt>
<wgt id='3203'>0.82852E+02</wgt>
<wgt id='3204'>0.79481E+02</wgt>
<wgt id='3205'>0.80547E+02</wgt>
<wgt id='3206'>0.81730E+02</wgt>
<wgt id='3207'>0.80127E+02</wgt>
<wgt id='3208'>0.82221E+02</wgt>
<wgt id='3209'>0.81128E+02</wgt>
<wgt id='3210'>0.79854E+02</wgt>
<wgt id='3211'>0.81129E+02</wgt>
<wgt id='3212'>0.82471E+02</wgt>
<wgt id='3213'>0.78917E+02</wgt>
<wgt id='3214'>0.80419E+02</wgt>
<wgt id='3215'>0.80222E+02</wgt>
<wgt id='3216'>0.78930E+02</wgt>
<wgt id='3217'>0.81837E+02</wgt>
<wgt id='3218'>0.81480E+02</wgt>
<wgt id='3219'>0.81797E+02</wgt>
<wgt id='3220'>0.80928E+02</wgt>
<wgt id='3221'>0.82019E+02</wgt>
<wgt id='3222'>0.80764E+02</wgt>
<wgt id='3223'>0.81422E+02</wgt>
<wgt id='3224'>0.80370E+02</wgt>
<wgt id='3225'>0.82502E+02</wgt>
<wgt id='3226'>0.80979E+02</wgt>
<wgt id='3227'>0.79700E+02</wgt>
<wgt id='3228'>0.80239E+02</wgt>
<wgt id='3229'>0.81701E+02</wgt>
<wgt id='3230'>0.80960E+02</wgt>
<wgt id='3231'>0.80643E+02</wgt>
<wgt id='3232'>0.80212E+02</wgt>
<wgt id='3233'>0.81665E+02</wgt>
<wgt id='3234'>0.80757E+02</wgt>
<wgt id='3235'>0.80864E+02</wgt>
<wgt id='3236'>0.79888E+02</wgt>
<wgt id='3237'>0.80802E+02</wgt>
<wgt id='3238'>0.79120E+02</wgt>
<wgt id='3239'>0.82281E+02</wgt>
<wgt id='3240'>0.82344E+02</wgt>
<wgt id='3241'>0.81686E+02</wgt>
<wgt id='3242'>0.79206E+02</wgt>
<wgt id='3243'>0.81092E+02</wgt>
<wgt id='3244'>0.79567E+02</wgt>
<wgt id='3245'>0.79772E+02</wgt>
<wgt id='3246'>0.81315E+02</wgt>
<wgt id='3247'>0.80706E+02</wgt>
<wgt id='3248'>0.83211E+02</wgt>
<wgt id='3249'>0.79651E+02</wgt>
<wgt id='3250'>0.82225E+02</wgt>
<wgt id='3251'>0.80135E+02</wgt>
<wgt id='3252'>0.80811E+02</wgt>
<wgt id='3253'>0.82109E+02</wgt>
<wgt id='3254'>0.81878E+02</wgt>
<wgt id='3255'>0.80391E+02</wgt>
<wgt id='3256'>0.79665E+02</wgt>
<wgt id='3257'>0.81159E+02</wgt>
<wgt id='3258'>0.81275E+02</wgt>
<wgt id='3259'>0.78959E+02</wgt>
<wgt id='3260'>0.80004E+02</wgt>
<wgt id='3261'>0.78622E+02</wgt>
<wgt id='3262'>0.83284E+02</wgt>
<wgt id='3263'>0.81806E+02</wgt>
<wgt id='3264'>0.80300E+02</wgt>
<wgt id='3265'>0.78302E+02</wgt>
<wgt id='3266'>0.80802E+02</wgt>
<wgt id='3267'>0.81958E+02</wgt>
<wgt id='3268'>0.81305E+02</wgt>
<wgt id='3269'>0.80257E+02</wgt>
<wgt id='3270'>0.81537E+02</wgt>
<wgt id='3271'>0.80710E+02</wgt>
<wgt id='3272'>0.81762E+02</wgt>
<wgt id='3273'>0.80901E+02</wgt>
<wgt id='3274'>0.80889E+02</wgt>
<wgt id='3275'>0.80811E+02</wgt>
<wgt id='3276'>0.81984E+02</wgt>
<wgt id='3277'>0.81847E+02</wgt>
<wgt id='3278'>0.81711E+02</wgt>
<wgt id='3279'>0.80305E+02</wgt>
<wgt id='3280'>0.80112E+02</wgt>
<wgt id='3281'>0.80066E+02</wgt>
<wgt id='3282'>0.81931E+02</wgt>
<wgt id='3283'>0.81915E+02</wgt>
<wgt id='3284'>0.81041E+02</wgt>
<wgt id='3285'>0.79748E+02</wgt>
<wgt id='3286'>0.82573E+02</wgt>
<wgt id='3287'>0.83495E+02</wgt>
<wgt id='3288'>0.80864E+02</wgt>
<wgt id='3289'>0.81545E+02</wgt>
<wgt id='3290'>0.80269E+02</wgt>
<wgt id='3291'>0.81155E+02</wgt>
<wgt id='3292'>0.82158E+02</wgt>
<wgt id='3293'>0.81287E+02</wgt>
<wgt id='3294'>0.81250E+02</wgt>
<wgt id='3295'>0.81306E+02</wgt>
<wgt id='3296'>0.83176E+02</wgt>
<wgt id='3297'>0.79722E+02</wgt>
<wgt id='3298'>0.80354E+02</wgt>
<wgt id='3299'>0.81299E+02</wgt>
<wgt id='3300'>0.79863E+02</wgt>
<wgt id='3301'>0.80218E+02</wgt>
<wgt id='3302'>0.81680E+02</wgt>
<wgt id='3400'>0.82180E+02</wgt>
<wgt id='3401'>0.81944E+02</wgt>
<wgt id='3402'>0.82186E+02</wgt>
<wgt id='3403'>0.82535E+02</wgt>
<wgt id='3404'>0.80802E+02</wgt>
<wgt id='3405'>0.81553E+02</wgt>
<wgt id='3406'>0.84377E+02</wgt>
<wgt id='3407'>0.83057E+02</wgt>
<wgt id='3408'>0.81038E+02</wgt>
<wgt id='3409'>0.83398E+02</wgt>
<wgt id='3410'>0.81024E+02</wgt>
<wgt id='3411'>0.82496E+02</wgt>
<wgt id='3412'>0.82457E+02</wgt>
<wgt id='3413'>0.82530E+02</wgt>
<wgt id='3414'>0.82499E+02</wgt>
<wgt id='3415'>0.81896E+02</wgt>
<wgt id='3416'>0.82033E+02</wgt>
<wgt id='3417'>0.83356E+02</wgt>
<wgt id='3418'>0.82686E+02</wgt>
<wgt id='3419'>0.82358E+02</wgt>
<wgt id='3420'>0.81432E+02</wgt>
<wgt id='3421'>0.82515E+02</wgt>
<wgt id='3422'>0.83201E+02</wgt>
<wgt id='3423'>0.82138E+02</wgt>
<wgt id='3424'>0.81769E+02</wgt>
<wgt id='3425'>0.82443E+02</wgt>
<wgt id='3426'>0.83777E+02</wgt>
<wgt id='3427'>0.82769E+02</wgt>
<wgt id='3428'>0.83099E+02</wgt>
<wgt id='3429'>0.81408E+02</wgt>
<wgt id='3430'>0.83019E+02</wgt>
<wgt id='3431'>0.81447E+02</wgt>
<wgt id='3432'>0.81137E+02</wgt>
<wgt id='3433'>0.82302E+02</wgt>
<wgt id='3434'>0.81218E+02</wgt>
<wgt id='3435'>0.81581E+02</wgt>
<wgt id='3436'>0.83720E+02</wgt>
<wgt id='3437'>0.81064E+02</wgt>
<wgt id='3438'>0.81283E+02</wgt>
<wgt id='3439'>0.81141E+02</wgt>
<wgt id='3440'>0.81178E+02</wgt>
<wgt id='3441'>0.81366E+02</wgt>
<wgt id='3442'>0.81252E+02</wgt>
<wgt id='3443'>0.80991E+02</wgt>
<wgt id='3444'>0.82507E+02</wgt>
<wgt id='3445'>0.81848E+02</wgt>
<wgt id='3446'>0.81608E+02</wgt>
<wgt id='3447'>0.84377E+02</wgt>
<wgt id='3448'>0.83911E+02</wgt>
<wgt id='3449'>0.82299E+02</wgt>
<wgt id='3450'>0.81922E+02</wgt>
<wgt id='3451'>0.82148E+02</wgt>
<wgt id='3452'>0.82267E+02</wgt>
<wgt id='3453'>0.82773E+02</wgt>
<wgt id='3454'>0.82347E+02</wgt>
<wgt id='3455'>0.82175E+02</wgt>
<wgt id='3456'>0.81924E+02</wgt>
<wgt id='3457'>0.82472E+02</wgt>
<wgt id='3458'>0.80989E+02</wgt>
<wgt id='3459'>0.82893E+02</wgt>
<wgt id='3460'>0.82621E+02</wgt>
<wgt id='3461'>0.81423E+02</wgt>
<wgt id='3462'>0.81892E+02</wgt>
<wgt id='3463'>0.81975E+02</wgt>
<wgt id='3464'>0.81375E+02</wgt>
<wgt id='3465'>0.81755E+02</wgt>
<wgt id='3466'>0.81205E+02</wgt>
<wgt id='3467'>0.82282E+02</wgt>
<wgt id='3468'>0.81931E+02</wgt>
<wgt id='3469'>0.82765E+02</wgt>
<wgt id='3470'>0.82410E+02</wgt>
<wgt id='3471'>0.81743E+02</wgt>
<wgt id='3472'>0.82507E+02</wgt>
<wgt id='3473'>0.81726E+02</wgt>
<wgt id='3474'>0.81518E+02</wgt>
<wgt id='3475'>0.82410E+02</wgt>
<wgt id='3476'>0.82627E+02</wgt>
<wgt id='3477'>0.83041E+02</wgt>
<wgt id='3478'>0.81161E+02</wgt>
<wgt id='3479'>0.83559E+02</wgt>
<wgt id='3480'>0.82284E+02</wgt>
<wgt id='3481'>0.82964E+02</wgt>
<wgt id='3482'>0.81122E+02</wgt>
<wgt id='3483'>0.81720E+02</wgt>
<wgt id='3484'>0.81585E+02</wgt>
<wgt id='3485'>0.82597E+02</wgt>
<wgt id='3486'>0.82133E+02</wgt>
<wgt id='3487'>0.82339E+02</wgt>
<wgt id='3488'>0.82149E+02</wgt>
<wgt id='3489'>0.82354E+02</wgt>
<wgt id='3490'>0.79985E+02</wgt>
<wgt id='3491'>0.83120E+02</wgt>
<wgt id='3492'>0.83019E+02</wgt>
<wgt id='3493'>0.81448E+02</wgt>
<wgt id='3494'>0.80639E+02</wgt>
<wgt id='3495'>0.82442E+02</wgt>
<wgt id='3496'>0.82492E+02</wgt>
<wgt id='3497'>0.82617E+02</wgt>
<wgt id='3498'>0.83253E+02</wgt>
<wgt id='3499'>0.83546E+02</wgt>
<wgt id='3500'>0.82363E+02</wgt>
</rwgt>
</event>
<event>
     13 322200  8.11039E+01  2.39645E+01 -1.00000E+00  1.57461E-01
      21    -1     0     0   504   505  0.000000000E+00  0.000000000E+00  1.182956100E+02  1.182956100E+02  0.000000000E+00  0.00000E+00  9.000E+00
      21    -1     0     0   502   503  0.000000000E+00  0.000000000E+00 -5.835001243E+02  5.835001243E+02  0.000000000E+00  0.00000E+00  9.000E+00
       6     2     1     2   502     0 -3.123553734E+01 -1.238815143E+02 -3.545028553E+02  4.142199098E+02  1.719987524E+02  0.00000E+00  9.000E+00
      -6     2     1     2     0   505  4.433922258E+01  1.439461339E+02 -1.242667914E+02  2.600384256E+02  1.717302862E+02  0.00000E+00  9.000E+00
      21     1     1     2   504   503 -1.310368524E+01 -2.006461964E+01  1.356513240E+01  2.753739903E+01  3.371747881E-07  0.00000E+00  9.000E+00
      24     2     3     3     0     0  4.078150577E+01 -3.772656783E+01 -1.040114925E+02  1.396645314E+02  7.484227177E+01  0.00000E+00  9.000E+00
       5     1     3     3   502     0 -7.201704311E+01 -8.615494648E+01 -2.504913629E+02  2.745553783E+02  5.060000000E+00  0.00000E+00 -1.000E+00
     -24     2     4     4     0     0  4.369859356E+01  6.916541597E+01 -1.377538291E+02  1.838802351E+02  9.023525693E+01  0.00000E+00  9.000E+00
      -5     1     4     4     0   505  6.406290132E-01  7.478071798E+01  1.348703771E+01  7.615819045E+01  5.060000000E+00  0.00000E+00  1.000E+00
     -13     1     6     6     0     0  2.261399112E+01 -2.799456718E+01 -1.119396704E+02  1.175822664E+02  1.057000000E-01  0.00000E+00  1.000E+00
      14     1     6     6     0     0  1.816751465E+01 -9.732000642E+00  7.928177922E+00  2.208226506E+01  0.000000000E+00  0.00000E+00 -1.000E+00
      13     1     8     8     0     0  6.188058902E+01  6.075079400E+01 -6.487808460E+01  1.083007078E+02  1.057000000E-01  0.00000E+00 -1.000E+00
     -14     1     8     8     0     0 -1.818199545E+01  8.414621975E+00 -7.287574446E+01  7.557952734E+01  0.000000000E+00  0.00000E+00  1.000E+00
#rwgt            1           1   728.40767664178566               10       23431           0
<rwgt>
<wgt id='1001'>0.81104E+02</wgt>
<wgt id='1002'>0.95816E+02</wgt>
<wgt id='1003'>0.65445E+02</wgt>
<wgt id='1004'>0.73738E+02</wgt>
<wgt id='1005'>0.84450E+02</wgt>
<wgt id='1006'>0.62314E+02</wgt>
<wgt id='1007'>0.88585E+02</wgt>
<wgt id='1008'>0.10926E+03</wgt>
<wgt id='1009'>0.66620E+02</wgt>
<wgt id='2000'>0.81104E+02</wgt>
<wgt id='2001'>0.80976E+02</wgt>
<wgt id='2002'>0.80915E+02</wgt>
<wgt id='2003'>0.81276E+02</wgt>
<wgt id='2004'>0.81254E+02</wgt>
<wgt id='2005'>0.81068E+02</wgt>
<wgt id='2006'>0.81269E+02</wgt>
<wgt id='2007'>0.81209E+02</wgt>
<wgt id='2008'>0.81295E+02</wgt>
<wgt id='2009'>0.81026E+02</wgt>
<wgt id='2010'>0.81035E+02</wgt>
<wgt id='2011'>0.81015E+02</wgt>
<wgt id='2012'>0.81167E+02</wgt>
<wgt id='2013'>0.81182E+02</wgt>
<wgt id='2014'>0.81231E+02</wgt>
<wgt id='2015'>0.81190E+02</wgt>
<wgt id='2016'>0.81218E+02</wgt>
<wgt id='2017'>0.81256E+02</wgt>
<wgt id='2018'>0.81228E+02</wgt>
<wgt id='2019'>0.80681E+02</wgt>
<wgt id='2020'>0.81242E+02</wgt>
<wgt id='2021'>0.80994E+02</wgt>
<wgt id='2022'>0.81228E+02</wgt>
<wgt id='2023'>0.81406E+02</wgt>
<wgt id='2024'>0.80903E+02</wgt>
<wgt id='2025'>0.81003E+02</wgt>
<wgt id='2026'>0.80926E+02</wgt>
<wgt id='2027'>0.80864E+02</wgt>
<wgt id='2028'>0.81287E+02</wgt>
<wgt id='2029'>0.80795E+02</wgt>
<wgt id='2030'>0.81139E+02</wgt>
<wgt id='2031'>0.80760E+02</wgt>
<wgt id='2032'>0.81147E+02</wgt>
<wgt id='2033'>0.80985E+02</wgt>
<wgt id='2034'>0.80921E+02</wgt>
<wgt id='2035'>0.81122E+02</wgt>
<wgt id='2036'>0.81310E+02</wgt>
<wgt id='2037'>0.81093E+02</wgt>
<wgt id='2038'>0.81026E+02</wgt>
<wgt id='2039'>0.81063E+02</wgt>
<wgt id='2040'>0.81077E+02</wgt>
<wgt id='2041'>0.81057E+02</wgt>
<wgt id='2042'>0.81198E+02</wgt>
<wgt id='2043'>0.81023E+02</wgt>
<wgt id='2044'>0.81175E+02</wgt>
<wgt id='2045'>0.81089E+02</wgt>
<wgt id='2046'>0.81112E+02</wgt>
<wgt id='2047'>0.81088E+02</wgt>
<wgt id='2048'>0.81086E+02</wgt>
<wgt id='2049'>0.81038E+02</wgt>
<wgt id='2050'>0.81067E+02</wgt>
<wgt id='2051'>0.81086E+02</wgt>
<wgt id='2052'>0.81173E+02</wgt>
<wgt id='2053'>0.81093E+02</wgt>
<wgt id='2054'>0.81104E+02</wgt>
<wgt id='2055'>0.81121E+02</wgt>
<wgt id='2056'>0.81036E+02</wgt>
<wgt id='2057'>0.81137E+02</wgt>
<wgt id='2058'>0.81124E+02</wgt>
<wgt id='2059'>0.81093E+02</wgt>
<wgt id='2060'>0.81106E+02</wgt>
<wgt id='2061'>0.81082E+02</wgt>
<wgt id='2062'>0.81168E+02</wgt>
<wgt id='2063'>0.81121E+02</wgt>
<wgt id='2064'>0.81114E+02</wgt>
<wgt id='2065'>0.81181E+02</wgt>
<wgt id='2066'>0.81099E+02</wgt>
<wgt id='2067'>0.81125E+02</wgt>
<wgt id='2068'>0.81121E+02</wgt>
<wgt id='2069'>0.81107E+02</wgt>
<wgt id='2070'>0.81114E+02</wgt>
<wgt id='2071'>0.81100E+02</wgt>
<wgt id='2072'>0.81097E+02</wgt>
<wgt id='2073'>0.81120E+02</wgt>
<wgt id='2074'>0.81091E+02</wgt>
<wgt id='2075'>0.81088E+02</wgt>
<wgt id='2076'>0.81088E+02</wgt>
<wgt id='2077'>0.81159E+02</wgt>
<wgt id='2078'>0.81110E+02</wgt>
<wgt id='2079'>0.81083E+02</wgt>
<wgt id='2080'>0.81119E+02</wgt>
<wgt id='2081'>0.81091E+02</wgt>
<wgt id='2082'>0.81113E+02</wgt>
<wgt id='2083'>0.81136E+02</wgt>
<wgt id='2084'>0.81109E+02</wgt>
<wgt id='2085'>0.81107E+02</wgt>
<wgt id='2086'>0.81090E+02</wgt>
<wgt id='2087'>0.81117E+02</wgt>
<wgt id='2088'>0.81094E+02</wgt>
<wgt id='2089'>0.81090E+02</wgt>
<wgt id='2090'>0.81117E+02</wgt>
<wgt id='2091'>0.81103E+02</wgt>
<wgt id='2092'>0.81125E+02</wgt>
<wgt id='2093'>0.81087E+02</wgt>
<wgt id='2094'>0.81108E+02</wgt>
<wgt id='2095'>0.81120E+02</wgt>
<wgt id='2096'>0.81093E+02</wgt>
<wgt id='2097'>0.81116E+02</wgt>
<wgt id='2098'>0.81102E+02</wgt>
<wgt id='2099'>0.81117E+02</wgt>
<wgt id='2100'>0.81104E+02</wgt>
<wgt id='2101'>0.79292E+02</wgt>
<wgt id='2102'>0.83244E+02</wgt>
<wgt id='2200'>0.81233E+02</wgt>
<wgt id='2201'>0.71818E+02</wgt>
<wgt id='2202'>0.73786E+02</wgt>
<wgt id='2203'>0.75457E+02</wgt>
<wgt id='2204'>0.77147E+02</wgt>
<wgt id='2205'>0.80358E+02</wgt>
<wgt id='2206'>0.82318E+02</wgt>
<wgt id='2207'>0.85046E+02</wgt>
<wgt id='2208'>0.86874E+02</wgt>
<wgt id='2300'>0.84698E+02</wgt>
<wgt id='2301'>0.84837E+02</wgt>
<wgt id='2302'>0.84551E+02</wgt>
<wgt id='2303'>0.84696E+02</wgt>
<wgt id='2304'>0.84957E+02</wgt>
<wgt id='2305'>0.84746E+02</wgt>
<wgt id='2306'>0.84657E+02</wgt>
<wgt id='2307'>0.84776E+02</wgt>
<wgt id='2308'>0.84650E+02</wgt>
<wgt id='2309'>0.84839E+02</wgt>
<wgt id='2310'>0.84551E+02</wgt>
<wgt id='2311'>0.84592E+02</wgt>
<wgt id='2312'>0.84801E+02</wgt>
<wgt id='2313'>0.84668E+02</wgt>
<wgt id='2314'>0.84712E+02</wgt>
<wgt id='2315'>0.84659E+02</wgt>
<wgt id='2316'>0.84716E+02</wgt>
<wgt id='2317'>0.84685E+02</wgt>
<wgt id='2318'>0.84708E+02</wgt>
<wgt id='2319'>0.84830E+02</wgt>
<wgt id='2320'>0.84888E+02</wgt>
<wgt id='2321'>0.84874E+02</wgt>
<wgt id='2322'>0.84701E+02</wgt>
<wgt id='2323'>0.84771E+02</wgt>
<wgt id='2324'>0.84822E+02</wgt>
<wgt id='2325'>0.84821E+02</wgt>
<wgt id='2326'>0.84490E+02</wgt>
<wgt id='2327'>0.84773E+02</wgt>
<wgt id='2328'>0.84739E+02</wgt>
<wgt id='2329'>0.84434E+02</wgt>
<wgt id='2330'>0.85294E+02</wgt>
<wgt id='2331'>0.85001E+02</wgt>
<wgt id='2332'>0.84578E+02</wgt>
<wgt id='2333'>0.84764E+02</wgt>
<wgt id='2334'>0.84628E+02</wgt>
<wgt id='2335'>0.85128E+02</wgt>
<wgt id='2336'>0.84857E+02</wgt>
<wgt id='2337'>0.84645E+02</wgt>
<wgt id='2338'>0.84732E+02</wgt>
<wgt id='2339'>0.84952E+02</wgt>
<wgt id='2340'>0.84521E+02</wgt>
<wgt id='2341'>0.84647E+02</wgt>
<wgt id='2342'>0.84550E+02</wgt>
<wgt id='2343'>0.84494E+02</wgt>
<wgt id='2344'>0.84858E+02</wgt>
<wgt id='2345'>0.84835E+02</wgt>
<wgt id='2346'>0.84794E+02</wgt>
<wgt id='2347'>0.84671E+02</wgt>
<wgt id='2348'>0.84737E+02</wgt>
<wgt id='2349'>0.84633E+02</wgt>
<wgt id='2350'>0.84612E+02</wgt>
<wgt id='2351'>0.84902E+02</wgt>
<wgt id='2352'>0.84674E+02</wgt>
<wgt id='2353'>0.84660E+02</wgt>
<wgt id='2354'>0.84692E+02</wgt>
<wgt id='2355'>0.84722E+02</wgt>
<wgt id='2356'>0.84734E+02</wgt>
<wgt id='2357'>0.84689E+02</wgt>
<wgt id='2358'>0.84654E+02</wgt>
<wgt id='2359'>0.84713E+02</wgt>
<wgt id='2360'>0.84714E+02</wgt>
<wgt id='2361'>0.84749E+02</wgt>
<wgt id='2362'>0.84712E+02</wgt>
<wgt id='2363'>0.84743E+02</wgt>
<wgt id='2364'>0.84684E+02</wgt>
<wgt id='2365'>0.84718E+02</wgt>
<wgt id='2366'>0.84727E+02</wgt>
<wgt id='2367'>0.84665E+02</wgt>
<wgt id='2368'>0.84699E+02</wgt>
<wgt id='2369'>0.84649E+02</wgt>
<wgt id='2370'>0.84671E+02</wgt>
<wgt id='2371'>0.84707E+02</wgt>
<wgt id='2372'>0.84726E+02</wgt>
<wgt id='2373'>0.84677E+02</wgt>
<wgt id='2374'>0.84752E+02</wgt>
<wgt id='2375'>0.84710E+02</wgt>
<wgt id='2376'>0.84701E+02</wgt>
<wgt id='2377'>0.84694E+02</wgt>
<wgt id='2378'>0.84728E+02</wgt>
<wgt id='2379'>0.84679E+02</wgt>
<wgt id='2380'>0.84670E+02</wgt>
<wgt id='2381'>0.84685E+02</wgt>
<wgt id='2382'>0.84673E+02</wgt>
<wgt id='2383'>0.84716E+02</wgt>
<wgt id='2384'>0.84691E+02</wgt>
<wgt id='2385'>0.84711E+02</wgt>
<wgt id='2386'>0.84708E+02</wgt>
<wgt id='2387'>0.84697E+02</wgt>
<wgt id='2388'>0.84686E+02</wgt>
<wgt id='2389'>0.84705E+02</wgt>
<wgt id='2390'>0.84696E+02</wgt>
<wgt id='2391'>0.84687E+02</wgt>
<wgt id='2392'>0.84692E+02</wgt>
<wgt id='2393'>0.84706E+02</wgt>
<wgt id='2394'>0.84712E+02</wgt>
<wgt id='2395'>0.84702E+02</wgt>
<wgt id='2396'>0.84676E+02</wgt>
<wgt id='2397'>0.84677E+02</wgt>
<wgt id='2398'>0.84685E+02</wgt>
<wgt id='2399'>0.84710E+02</wgt>
<wgt id='2400'>0.84704E+02</wgt>
<wgt id='2401'>0.82659E+02</wgt>
<wgt id='2402'>0.86676E+02</wgt>
<wgt id='2500'>0.81397E+02</wgt>
<wgt id='2501'>0.86329E+02</wgt>
<wgt id='2600'>0.78677E+02</wgt>
<wgt id='2601'>0.78589E+02</wgt>
<wgt id='2602'>0.78694E+02</wgt>
<wgt id='2603'>0.78649E+02</wgt>
<wgt id='2604'>0.78743E+02</wgt>
<wgt id='2605'>0.78573E+02</wgt>
<wgt id='2606'>0.78596E+02</wgt>
<wgt id='2607'>0.78751E+02</wgt>
<wgt id='2608'>0.78686E+02</wgt>
<wgt id='2609'>0.78600E+02</wgt>
<wgt id='2610'>0.78619E+02</wgt>
<wgt id='2611'>0.78624E+02</wgt>
<wgt id='2612'>0.78856E+02</wgt>
<wgt id='2613'>0.78653E+02</wgt>
<wgt id='2614'>0.78634E+02</wgt>
<wgt id='2615'>0.78487E+02</wgt>
<wgt id='2616'>0.78674E+02</wgt>
<wgt id='2617'>0.78487E+02</wgt>
<wgt id='2618'>0.78508E+02</wgt>
<wgt id='2619'>0.78749E+02</wgt>
<wgt id='2620'>0.78653E+02</wgt>
<wgt id='2621'>0.78709E+02</wgt>
<wgt id='2622'>0.78948E+02</wgt>
<wgt id='2623'>0.78678E+02</wgt>
<wgt id='2624'>0.78678E+02</wgt>
<wgt id='2625'>0.78614E+02</wgt>
<wgt id='2626'>0.78650E+02</wgt>
<wgt id='2627'>0.78670E+02</wgt>
<wgt id='2628'>0.78698E+02</wgt>
<wgt id='2629'>0.78682E+02</wgt>
<wgt id='2630'>0.78707E+02</wgt>
<wgt id='2631'>0.78560E+02</wgt>
<wgt id='2632'>0.78712E+02</wgt>
<wgt id='2633'>0.78635E+02</wgt>
<wgt id='2634'>0.78599E+02</wgt>
<wgt id='2635'>0.78680E+02</wgt>
<wgt id='2636'>0.78656E+02</wgt>
<wgt id='2637'>0.78701E+02</wgt>
<wgt id='2638'>0.78719E+02</wgt>
<wgt id='2639'>0.78682E+02</wgt>
<wgt id='2640'>0.78666E+02</wgt>
<wgt id='2641'>0.78720E+02</wgt>
<wgt id='2642'>0.78695E+02</wgt>
<wgt id='2643'>0.78680E+02</wgt>
<wgt id='2644'>0.78673E+02</wgt>
<wgt id='2645'>0.78685E+02</wgt>
<wgt id='2646'>0.78718E+02</wgt>
<wgt id='2647'>0.78671E+02</wgt>
<wgt id='2648'>0.78665E+02</wgt>
<wgt id='2649'>0.78669E+02</wgt>
<wgt id='2650'>0.78674E+02</wgt>
<wgt id='2651'>0.77402E+02</wgt>
<wgt id='2652'>0.79814E+02</wgt>
<wgt id='2700'>0.76251E+02</wgt>
<wgt id='2701'>0.77402E+02</wgt>
<wgt id='2702'>0.78099E+02</wgt>
<wgt id='2703'>0.79171E+02</wgt>
<wgt id='2704'>0.79814E+02</wgt>
<wgt id='2705'>0.80886E+02</wgt>
<wgt id='2800'>0.79641E+02</wgt>
<wgt id='4000'>0.80525E+02</wgt>
<wgt id='4001'>0.80830E+02</wgt>
<wgt id='4002'>0.80421E+02</wgt>
<wgt id='4003'>0.80770E+02</wgt>
<wgt id='4004'>0.80204E+02</wgt>
<wgt id='4005'>0.80234E+02</wgt>
<wgt id='4006'>0.80835E+02</wgt>
<wgt id='4007'>0.81466E+02</wgt>
<wgt id='4008'>0.79610E+02</wgt>
<wgt id='4009'>0.80803E+02</wgt>
<wgt id='4010'>0.80239E+02</wgt>
<wgt id='4011'>0.80861E+02</wgt>
<wgt id='4012'>0.80195E+02</wgt>
<wgt id='4013'>0.80954E+02</wgt>
<wgt id='4014'>0.80154E+02</wgt>
<wgt id='4015'>0.80014E+02</wgt>
<wgt id='4016'>0.81034E+02</wgt>
<wgt id='4017'>0.80444E+02</wgt>
<wgt id='4018'>0.80640E+02</wgt>
<wgt id='4019'>0.81015E+02</wgt>
<wgt id='4020'>0.79769E+02</wgt>
<wgt id='4021'>0.80623E+02</wgt>
<wgt id='4022'>0.80333E+02</wgt>
<wgt id='4023'>0.80527E+02</wgt>
<wgt id='4024'>0.80643E+02</wgt>
<wgt id='4025'>0.80735E+02</wgt>
<wgt id='4026'>0.80065E+02</wgt>
<wgt id='4027'>0.80546E+02</wgt>
<wgt id='4028'>0.80516E+02</wgt>
<wgt id='4029'>0.80236E+02</wgt>
<wgt id='4030'>0.80072E+02</wgt>
<wgt id='4031'>0.80229E+02</wgt>
<wgt id='4032'>0.80885E+02</wgt>
<wgt id='4033'>0.80719E+02</wgt>
<wgt id='4034'>0.80022E+02</wgt>
<wgt id='4035'>0.81544E+02</wgt>
<wgt id='4036'>0.79705E+02</wgt>
<wgt id='4037'>0.82063E+02</wgt>
<wgt id='4038'>0.79354E+02</wgt>
<wgt id='4039'>0.82029E+02</wgt>
<wgt id='4040'>0.78990E+02</wgt>
<wgt id='4041'>0.80597E+02</wgt>
<wgt id='4042'>0.80331E+02</wgt>
<wgt id='4043'>0.79816E+02</wgt>
<wgt id='4044'>0.80363E+02</wgt>
<wgt id='4045'>0.81861E+02</wgt>
<wgt id='4046'>0.79862E+02</wgt>
<wgt id='4047'>0.79841E+02</wgt>
<wgt id='4048'>0.80791E+02</wgt>
<wgt id='4049'>0.80500E+02</wgt>
<wgt id='4050'>0.80481E+02</wgt>
<wgt id='4051'>0.81551E+02</wgt>
<wgt id='4052'>0.79633E+02</wgt>
<wgt id='4053'>0.80927E+02</wgt>
<wgt id='4054'>0.79619E+02</wgt>
<wgt id='4055'>0.80901E+02</wgt>
<wgt id='4056'>0.80080E+02</wgt>
<wgt id='4057'>0.79737E+02</wgt>
<wgt id='4058'>0.81052E+02</wgt>
<wgt id='4100'>0.81107E+02</wgt>
<wgt id='4101'>0.80823E+02</wgt>
<wgt id='4102'>0.80208E+02</wgt>
<wgt id='4103'>0.79873E+02</wgt>
<wgt id='4200'>0.77729E+02</wgt>
<wgt id='4201'>0.77767E+02</wgt>
<wgt id='4202'>0.77865E+02</wgt>
<wgt id='4203'>0.77100E+02</wgt>
<wgt id='4204'>0.78197E+02</wgt>
<wgt id='4205'>0.77657E+02</wgt>
<wgt id='4206'>0.77930E+02</wgt>
<wgt id='4207'>0.77748E+02</wgt>
<wgt id='4208'>0.77708E+02</wgt>
<wgt id='4209'>0.77820E+02</wgt>
<wgt id='4210'>0.77758E+02</wgt>
<wgt id='4211'>0.78725E+02</wgt>
<wgt id='4212'>0.76938E+02</wgt>
<wgt id='4213'>0.77928E+02</wgt>
<wgt id='4214'>0.77393E+02</wgt>
<wgt id='4215'>0.77744E+02</wgt>
<wgt id='4216'>0.77543E+02</wgt>
<wgt id='4217'>0.77393E+02</wgt>
<wgt id='4218'>0.77960E+02</wgt>
<wgt id='4219'>0.76692E+02</wgt>
<wgt id='4220'>0.78669E+02</wgt>
<wgt id='4221'>0.77077E+02</wgt>
<wgt id='4222'>0.78501E+02</wgt>
<wgt id='4223'>0.77939E+02</wgt>
<wgt id='4224'>0.77134E+02</wgt>
<wgt id='4225'>0.76374E+02</wgt>
<wgt id='4226'>0.79037E+02</wgt>
<wgt id='4227'>0.78334E+02</wgt>
<wgt id='4228'>0.77209E+02</wgt>
<wgt id='4229'>0.76788E+02</wgt>
<wgt id='4230'>0.78379E+02</wgt>
<wgt id='4231'>0.77731E+02</wgt>
<wgt id='4232'>0.77644E+02</wgt>
<wgt id='4233'>0.77916E+02</wgt>
<wgt id='4234'>0.77264E+02</wgt>
<wgt id='4235'>0.78209E+02</wgt>
<wgt id='4236'>0.77275E+02</wgt>
<wgt id='4237'>0.78083E+02</wgt>
<wgt id='4238'>0.77072E+02</wgt>
<wgt id='4239'>0.77970E+02</wgt>
<wgt id='4240'>0.76650E+02</wgt>
<wgt id='4241'>0.77444E+02</wgt>
<wgt id='4242'>0.78007E+02</wgt>
<wgt id='4243'>0.77706E+02</wgt>
<wgt id='4244'>0.77947E+02</wgt>
<wgt id='4245'>0.77048E+02</wgt>
<wgt id='4246'>0.78306E+02</wgt>
<wgt id='4247'>0.77420E+02</wgt>
<wgt id='4248'>0.77843E+02</wgt>
<wgt id='4249'>0.78917E+02</wgt>
<wgt id='4250'>0.76316E+02</wgt>
<wgt id='4251'>0.77185E+02</wgt>
<wgt id='4252'>0.77980E+02</wgt>
<wgt id='4253'>0.77374E+02</wgt>
<wgt id='4254'>0.77878E+02</wgt>
<wgt id='4255'>0.78285E+02</wgt>
<wgt id='4256'>0.77299E+02</wgt>
<wgt id='4257'>0.76262E+02</wgt>
<wgt id='4258'>0.78153E+02</wgt>
<wgt id='4300'>0.79721E+02</wgt>
<wgt id='4301'>0.79197E+02</wgt>
<wgt id='5000'>0.80614E+02</wgt>
<wgt id='5001'>0.80654E+02</wgt>
<wgt id='5002'>0.80563E+02</wgt>
<wgt id='5003'>0.80633E+02</wgt>
<wgt id='5004'>0.80597E+02</wgt>
<wgt id='5005'>0.80619E+02</wgt>
<wgt id='5006'>0.80606E+02</wgt>
<wgt id='5007'>0.80685E+02</wgt>
<wgt id='5008'>0.80556E+02</wgt>
<wgt id='5009'>0.80722E+02</wgt>
<wgt id='5010'>0.80503E+02</wgt>
<wgt id='5011'>0.80812E+02</wgt>
<wgt id='5012'>0.80423E+02</wgt>
<wgt id='5013'>0.80727E+02</wgt>
<wgt id='5014'>0.80534E+02</wgt>
<wgt id='5015'>0.80199E+02</wgt>
<wgt id='5016'>0.80199E+02</wgt>
<wgt id='5017'>0.81068E+02</wgt>
<wgt id='5018'>0.80307E+02</wgt>
<wgt id='5019'>0.80941E+02</wgt>
<wgt id='5020'>0.80166E+02</wgt>
<wgt id='5021'>0.80714E+02</wgt>
<wgt id='5022'>0.80458E+02</wgt>
<wgt id='5023'>0.80524E+02</wgt>
<wgt id='5024'>0.80830E+02</wgt>
<wgt id='5025'>0.80312E+02</wgt>
<wgt id='5026'>0.80953E+02</wgt>
<wgt id='5027'>0.80658E+02</wgt>
<wgt id='5028'>0.80495E+02</wgt>
<wgt id='5029'>0.81404E+02</wgt>
<wgt id='5030'>0.80167E+02</wgt>
<wgt id='5031'>0.80204E+02</wgt>
<wgt id='5032'>0.81856E+02</wgt>
<wgt id='5033'>0.80597E+02</wgt>
<wgt id='5034'>0.80632E+02</wgt>
<wgt id='5035'>0.80619E+02</wgt>
<wgt id='5036'>0.80610E+02</wgt>
<wgt id='5037'>0.80452E+02</wgt>
<wgt id='5038'>0.80706E+02</wgt>
<wgt id='5039'>0.80829E+02</wgt>
<wgt id='5040'>0.80085E+02</wgt>
<wgt id='5041'>0.80730E+02</wgt>
<wgt id='5042'>0.80496E+02</wgt>
<wgt id='5043'>0.80759E+02</wgt>
<wgt id='5044'>0.80533E+02</wgt>
<wgt id='5045'>0.80507E+02</wgt>
<wgt id='5046'>0.80806E+02</wgt>
<wgt id='5047'>0.80666E+02</wgt>
<wgt id='5048'>0.80390E+02</wgt>
<wgt id='5049'>0.80567E+02</wgt>
<wgt id='5050'>0.80729E+02</wgt>
<wgt id='5051'>0.80779E+02</wgt>
<wgt id='5052'>0.80479E+02</wgt>
<wgt id='5053'>0.80538E+02</wgt>
<wgt id='5054'>0.80799E+02</wgt>
<wgt id='5055'>0.80679E+02</wgt>
<wgt id='5056'>0.80652E+02</wgt>
<wgt id='5057'>0.80325E+02</wgt>
<wgt id='5058'>0.80816E+02</wgt>
<wgt id='5059'>0.80569E+02</wgt>
<wgt id='5060'>0.80653E+02</wgt>
<wgt id='5061'>0.80878E+02</wgt>
<wgt id='5062'>0.80691E+02</wgt>
<wgt id='5063'>0.80923E+02</wgt>
<wgt id='5064'>0.80585E+02</wgt>
<wgt id='5100'>0.80614E+02</wgt>
<wgt id='5101'>0.80624E+02</wgt>
<wgt id='6000'>0.80258E+02</wgt>
<wgt id='6001'>0.80199E+02</wgt>
<wgt id='6002'>0.80180E+02</wgt>
<wgt id='6003'>0.80117E+02</wgt>
<wgt id='6004'>0.80292E+02</wgt>
<wgt id='6005'>0.79973E+02</wgt>
<wgt id='6006'>0.80428E+02</wgt>
<wgt id='6007'>0.80029E+02</wgt>
<wgt id='6008'>0.79962E+02</wgt>
<wgt id='6009'>0.80288E+02</wgt>
<wgt id='6010'>0.79177E+02</wgt>
<wgt id='6011'>0.80219E+02</wgt>
<wgt id='6012'>0.80456E+02</wgt>
<wgt id='6013'>0.79959E+02</wgt>
<wgt id='6014'>0.80080E+02</wgt>
<wgt id='6015'>0.79714E+02</wgt>
<wgt id='6016'>0.80428E+02</wgt>
<wgt id='6017'>0.80075E+02</wgt>
<wgt id='6018'>0.79957E+02</wgt>
<wgt id='6019'>0.80260E+02</wgt>
<wgt id='6020'>0.80413E+02</wgt>
<wgt id='6021'>0.80197E+02</wgt>
<wgt id='6022'>0.80327E+02</wgt>
<wgt id='6023'>0.80247E+02</wgt>
<wgt id='6024'>0.80326E+02</wgt>
<wgt id='6025'>0.80567E+02</wgt>
<wgt id='6026'>0.80190E+02</wgt>
<wgt id='6027'>0.80264E+02</wgt>
<wgt id='6028'>0.80049E+02</wgt>
<wgt id='6029'>0.80148E+02</wgt>
<wgt id='6030'>0.80161E+02</wgt>
<wgt id='6031'>0.80066E+02</wgt>
<wgt id='6032'>0.80254E+02</wgt>
<wgt id='6033'>0.80177E+02</wgt>
<wgt id='6034'>0.80521E+02</wgt>
<wgt id='6035'>0.80309E+02</wgt>
<wgt id='6036'>0.80778E+02</wgt>
<wgt id='6037'>0.80264E+02</wgt>
<wgt id='6038'>0.80271E+02</wgt>
<wgt id='6039'>0.80412E+02</wgt>
<wgt id='6040'>0.80251E+02</wgt>
<wgt id='6041'>0.78932E+02</wgt>
<wgt id='6042'>0.80759E+02</wgt>
<wgt id='7000'>0.80183E+02</wgt>
<wgt id='7001'>0.79465E+02</wgt>
<wgt id='7002'>0.79638E+02</wgt>
<wgt id='7003'>0.79536E+02</wgt>
<wgt id='7004'>0.79568E+02</wgt>
<wgt id='7005'>0.79666E+02</wgt>
<wgt id='7006'>0.79438E+02</wgt>
<wgt id='7007'>0.80064E+02</wgt>
<wgt id='7008'>0.79054E+02</wgt>
<wgt id='7009'>0.79204E+02</wgt>
<wgt id='7010'>0.79912E+02</wgt>
<wgt id='7011'>0.79857E+02</wgt>
<wgt id='7012'>0.79252E+02</wgt>
<wgt id='7013'>0.79424E+02</wgt>
<wgt id='7014'>0.79673E+02</wgt>
<wgt id='7015'>0.79522E+02</wgt>
<wgt id='7016'>0.79368E+02</wgt>
<wgt id='7017'>0.79555E+02</wgt>
<wgt id='7018'>0.79552E+02</wgt>
<wgt id='7019'>0.79501E+02</wgt>
<wgt id='7020'>0.79613E+02</wgt>
<wgt id='7021'>0.79818E+02</wgt>
<wgt id='7022'>0.79263E+02</wgt>
<wgt id='7023'>0.79065E+02</wgt>
<wgt id='7024'>0.80045E+02</wgt>
<wgt id='7025'>0.78469E+02</wgt>
<wgt id='7026'>0.80544E+02</wgt>
<wgt id='7027'>0.79131E+02</wgt>
<wgt id='7028'>0.80038E+02</wgt>
<wgt id='8000'>0.80706E+02</wgt>
<wgt id='8001'>0.80698E+02</wgt>
<wgt id='8002'>0.80732E+02</wgt>
<wgt id='8003'>0.80709E+02</wgt>
<wgt id='8004'>0.80704E+02</wgt>
<wgt id='8005'>0.80549E+02</wgt>
<wgt id='8006'>0.80789E+02</wgt>
<wgt id='8007'>0.80862E+02</wgt>
<wgt id='8008'>0.80898E+02</wgt>
<wgt id='8009'>0.81069E+02</wgt>
<wgt id='8010'>0.80614E+02</wgt>
<wgt id='8011'>0.80723E+02</wgt>
<wgt id='8012'>0.80397E+02</wgt>
<wgt id='8013'>0.80549E+02</wgt>
<wgt id='8014'>0.80903E+02</wgt>
<wgt id='8015'>0.80660E+02</wgt>
<wgt id='8016'>0.80792E+02</wgt>
<wgt id='8017'>0.80777E+02</wgt>
<wgt id='8018'>0.80924E+02</wgt>
<wgt id='8019'>0.80745E+02</wgt>
<wgt id='8020'>0.80693E+02</wgt>
<wgt id='8021'>0.80629E+02</wgt>
<wgt id='8022'>0.80669E+02</wgt>
<wgt id='8023'>0.80597E+02</wgt>
<wgt id='8024'>0.80428E+02</wgt>
<wgt id='8025'>0.80636E+02</wgt>
<wgt id='8026'>0.80810E+02</wgt>
<wgt id='8027'>0.80756E+02</wgt>
<wgt id='8028'>0.80771E+02</wgt>
<wgt id='8029'>0.80761E+02</wgt>
<wgt id='3000'>0.81104E+02</wgt>
<wgt id='3001'>0.80212E+02</wgt>
<wgt id='3002'>0.79869E+02</wgt>
<wgt id='3003'>0.79439E+02</wgt>
<wgt id='3004'>0.82300E+02</wgt>
<wgt id='3005'>0.81963E+02</wgt>
<wgt id='3006'>0.82785E+02</wgt>
<wgt id='3007'>0.80348E+02</wgt>
<wgt id='3008'>0.80692E+02</wgt>
<wgt id='3009'>0.81019E+02</wgt>
<wgt id='3010'>0.82780E+02</wgt>
<wgt id='3011'>0.80881E+02</wgt>
<wgt id='3012'>0.81562E+02</wgt>
<wgt id='3013'>0.79743E+02</wgt>
<wgt id='3014'>0.80909E+02</wgt>
<wgt id='3015'>0.80332E+02</wgt>
<wgt id='3016'>0.81843E+02</wgt>
<wgt id='3017'>0.82935E+02</wgt>
<wgt id='3018'>0.80873E+02</wgt>
<wgt id='3019'>0.79869E+02</wgt>
<wgt id='3020'>0.80743E+02</wgt>
<wgt id='3021'>0.78767E+02</wgt>
<wgt id='3022'>0.79380E+02</wgt>
<wgt id='3023'>0.79880E+02</wgt>
<wgt id='3024'>0.81183E+02</wgt>
<wgt id='3025'>0.80259E+02</wgt>
<wgt id='3026'>0.80190E+02</wgt>
<wgt id='3027'>0.80153E+02</wgt>
<wgt id='3028'>0.80487E+02</wgt>
<wgt id='3029'>0.82391E+02</wgt>
<wgt id='3030'>0.81941E+02</wgt>
<wgt id='3031'>0.80116E+02</wgt>
<wgt id='3032'>0.81222E+02</wgt>
<wgt id='3033'>0.80581E+02</wgt>
<wgt id='3034'>0.82667E+02</wgt>
<wgt id='3035'>0.79914E+02</wgt>
<wgt id='3036'>0.80247E+02</wgt>
<wgt id='3037'>0.79352E+02</wgt>
<wgt id='3038'>0.81179E+02</wgt>
<wgt id='3039'>0.80020E+02</wgt>
<wgt id='3040'>0.81683E+02</wgt>
<wgt id='3041'>0.82113E+02</wgt>
<wgt id='3042'>0.81929E+02</wgt>
<wgt id='3043'>0.82004E+02</wgt>
<wgt id='3044'>0.82034E+02</wgt>
<wgt id='3045'>0.81905E+02</wgt>
<wgt id='3046'>0.81852E+02</wgt>
<wgt id='3047'>0.79831E+02</wgt>
<wgt id='3048'>0.81075E+02</wgt>
<wgt id='3049'>0.79550E+02</wgt>
<wgt id='3050'>0.80550E+02</wgt>
<wgt id='3051'>0.80506E+02</wgt>
<wgt id='3052'>0.79848E+02</wgt>
<wgt id='3053'>0.81195E+02</wgt>
<wgt id='3054'>0.79678E+02</wgt>
<wgt id='3055'>0.81123E+02</wgt>
<wgt id='3056'>0.81312E+02</wgt>
<wgt id='3057'>0.79985E+02</wgt>
<wgt id='3058'>0.81017E+02</wgt>
<wgt id='3059'>0.82441E+02</wgt>
<wgt id='3060'>0.80535E+02</wgt>
<wgt id='3061'>0.80376E+02</wgt>
<wgt id='3062'>0.80753E+02</wgt>
<wgt id='3063'>0.80377E+02</wgt>
<wgt id='3064'>0.81916E+02</wgt>
<wgt id='3065'>0.80290E+02</wgt>
<wgt id='3066'>0.82482E+02</wgt>
<wgt id='3067'>0.79840E+02</wgt>
<wgt id='3068'>0.81358E+02</wgt>
<wgt id='3069'>0.81327E+02</wgt>
<wgt id='3070'>0.80790E+02</wgt>
<wgt id='3071'>0.81322E+02</wgt>
<wgt id='3072'>0.79674E+02</wgt>
<wgt id='3073'>0.82172E+02</wgt>
<wgt id='3074'>0.81124E+02</wgt>
<wgt id='3075'>0.82367E+02</wgt>
<wgt id='3076'>0.82565E+02</wgt>
<wgt id='3077'>0.81517E+02</wgt>
<wgt id='3078'>0.79421E+02</wgt>
<wgt id='3079'>0.81016E+02</wgt>
<wgt id='3080'>0.82393E+02</wgt>
<wgt id='3081'>0.80961E+02</wgt>
<wgt id='3082'>0.81843E+02</wgt>
<wgt id='3083'>0.81785E+02</wgt>
<wgt id='3084'>0.81165E+02</wgt>
<wgt id='3085'>0.79271E+02</wgt>
<wgt id='3086'>0.81325E+02</wgt>
<wgt id='3087'>0.81129E+02</wgt>
<wgt id='3088'>0.82876E+02</wgt>
<wgt id='3089'>0.85055E+02</wgt>
<wgt id='3090'>0.82560E+02</wgt>
<wgt id='3091'>0.81411E+02</wgt>
<wgt id='3092'>0.82381E+02</wgt>
<wgt id='3093'>0.81935E+02</wgt>
<wgt id='3094'>0.81825E+02</wgt>
<wgt id='3095'>0.81449E+02</wgt>
<wgt id='3096'>0.80327E+02</wgt>
<wgt id='3097'>0.82341E+02</wgt>
<wgt id='3098'>0.82448E+02</wgt>
<wgt id='3099'>0.80554E+02</wgt>
<wgt id='3100'>0.81043E+02</wgt>
<wgt id='3200'>0.78711E+02</wgt>
<wgt id='3201'>0.79260E+02</wgt>
<wgt id='3202'>0.77256E+02</wgt>
<wgt id='3203'>0.78980E+02</wgt>
<wgt id='3204'>0.77750E+02</wgt>
<wgt id='3205'>0.79066E+02</wgt>
<wgt id='3206'>0.79724E+02</wgt>
<wgt id='3207'>0.79832E+02</wgt>
<wgt id='3208'>0.79280E+02</wgt>
<wgt id='3209'>0.78432E+02</wgt>
<wgt id='3210'>0.78759E+02</wgt>
<wgt id='3211'>0.79449E+02</wgt>
<wgt id='3212'>0.78362E+02</wgt>
<wgt id='3213'>0.78647E+02</wgt>
<wgt id='3214'>0.78272E+02</wgt>
<wgt id='3215'>0.78926E+02</wgt>
<wgt id='3216'>0.79587E+02</wgt>
<wgt id='3217'>0.79122E+02</wgt>
<wgt id='3218'>0.79214E+02</wgt>
<wgt id='3219'>0.78735E+02</wgt>
<wgt id='3220'>0.78082E+02</wgt>
<wgt id='3221'>0.79126E+02</wgt>
<wgt id='3222'>0.79915E+02</wgt>
<wgt id='3223'>0.79372E+02</wgt>
<wgt id='3224'>0.78493E+02</wgt>
<wgt id='3225'>0.79691E+02</wgt>
<wgt id='3226'>0.78426E+02</wgt>
<wgt id='3227'>0.77925E+02</wgt>
<wgt id='3228'>0.77700E+02</wgt>
<wgt id='3229'>0.79399E+02</wgt>
<wgt id='3230'>0.79124E+02</wgt>
<wgt id='3231'>0.78825E+02</wgt>
<wgt id='3232'>0.79060E+02</wgt>
<wgt id='3233'>0.79267E+02</wgt>
<wgt id='3234'>0.78213E+02</wgt>
<wgt id='3235'>0.78617E+02</wgt>
<wgt id='3236'>0.77983E+02</wgt>
<wgt id='3237'>0.78756E+02</wgt>
<wgt id='3238'>0.77761E+02</wgt>
<wgt id='3239'>0.78465E+02</wgt>
<wgt id='3240'>0.78008E+02</wgt>
<wgt id='3241'>0.79662E+02</wgt>
<wgt id='3242'>0.78174E+02</wgt>
<wgt id='3243'>0.78038E+02</wgt>
<wgt id='3244'>0.78383E+02</wgt>
<wgt id='3245'>0.79044E+02</wgt>
<wgt id='3246'>0.77304E+02</wgt>
<wgt id='3247'>0.78808E+02</wgt>
<wgt id='3248'>0.78216E+02</wgt>
<wgt id='3249'>0.77789E+02</wgt>
<wgt id='3250'>0.79237E+02</wgt>
<wgt id='3251'>0.78447E+02</wgt>
<wgt id='3252'>0.79016E+02</wgt>
<wgt id='3253'>0.78291E+02</wgt>
<wgt id='3254'>0.78508E+02</wgt>
<wgt id='3255'>0.78412E+02</wgt>
<wgt id='3256'>0.78884E+02</wgt>
<wgt id='3257'>0.78701E+02</wgt>
<wgt id='3258'>0.78662E+02</wgt>
<wgt id='3259'>0.78307E+02</wgt>
<wgt id='3260'>0.78642E+02</wgt>
<wgt id='3261'>0.78830E+02</wgt>
<wgt id='3262'>0.78748E+02</wgt>
<wgt id='3263'>0.79769E+02</wgt>
<wgt id='3264'>0.78600E+02</wgt>
<wgt id='3265'>0.78939E+02</wgt>
<wgt id='3266'>0.78756E+02</wgt>
<wgt id='3267'>0.78450E+02</wgt>
<wgt id='3268'>0.78874E+02</wgt>
<wgt id='3269'>0.78893E+02</wgt>
<wgt id='3270'>0.79398E+02</wgt>
<wgt id='3271'>0.79059E+02</wgt>
<wgt id='3272'>0.79155E+02</wgt>
<wgt id='3273'>0.78539E+02</wgt>
<wgt id='3274'>0.78185E+02</wgt>
<wgt id='3275'>0.79080E+02</wgt>
<wgt id='3276'>0.78144E+02</wgt>
<wgt id='3277'>0.78482E+02</wgt>
<wgt id='3278'>0.78799E+02</wgt>
<wgt id='3279'>0.79275E+02</wgt>
<wgt id='3280'>0.78544E+02</wgt>
<wgt id='3281'>0.78929E+02</wgt>
<wgt id='3282'>0.78976E+02</wgt>
<wgt id='3283'>0.78764E+02</wgt>
<wgt id='3284'>0.78890E+02</wgt>
<wgt id='3285'>0.78234E+02</wgt>
<wgt id='3286'>0.77923E+02</wgt>
<wgt id='3287'>0.78847E+02</wgt>
<wgt id='3288'>0.78946E+02</wgt>
<wgt id='3289'>0.79904E+02</wgt>
<wgt id='3290'>0.78897E+02</wgt>
<wgt id='3291'>0.77258E+02</wgt>
<wgt id='3292'>0.78397E+02</wgt>
<wgt id='3293'>0.78601E+02</wgt>
<wgt id='3294'>0.77728E+02</wgt>
<wgt id='3295'>0.78430E+02</wgt>
<wgt id='3296'>0.79744E+02</wgt>
<wgt id='3297'>0.78440E+02</wgt>
<wgt id='3298'>0.78272E+02</wgt>
<wgt id='3299'>0.78646E+02</wgt>
<wgt id='3300'>0.79298E+02</wgt>
<wgt id='3301'>0.77402E+02</wgt>
<wgt id='3302'>0.79814E+02</wgt>
<wgt id='3400'>0.78397E+02</wgt>
<wgt id='3401'>0.78360E+02</wgt>
<wgt id='3402'>0.77309E+02</wgt>
<wgt id='3403'>0.79154E+02</wgt>
<wgt id='3404'>0.79784E+02</wgt>
<wgt id='3405'>0.78923E+02</wgt>
<wgt id='3406'>0.79210E+02</wgt>
<wgt id='3407'>0.78207E+02</wgt>
<wgt id='3408'>0.79658E+02</wgt>
<wgt id='3409'>0.79530E+02</wgt>
<wgt id='3410'>0.78819E+02</wgt>
<wgt id='3411'>0.79467E+02</wgt>
<wgt id='3412'>0.79240E+02</wgt>
<wgt id='3413'>0.78353E+02</wgt>
<wgt id='3414'>0.77732E+02</wgt>
<wgt id='3415'>0.78031E+02</wgt>
<wgt id='3416'>0.77788E+02</wgt>
<wgt id='3417'>0.78554E+02</wgt>
<wgt id='3418'>0.77619E+02</wgt>
<wgt id='3419'>0.77673E+02</wgt>
<wgt id='3420'>0.78260E+02</wgt>
<wgt id='3421'>0.78265E+02</wgt>
<wgt id='3422'>0.78666E+02</wgt>
<wgt id='3423'>0.78879E+02</wgt>
<wgt id='3424'>0.78973E+02</wgt>
<wgt id='3425'>0.78254E+02</wgt>
<wgt id='3426'>0.78204E+02</wgt>
<wgt id='3427'>0.78000E+02</wgt>
<wgt id='3428'>0.79261E+02</wgt>
<wgt id='3429'>0.77702E+02</wgt>
<wgt id='3430'>0.78563E+02</wgt>
<wgt id='3431'>0.78503E+02</wgt>
<wgt id='3432'>0.78834E+02</wgt>
<wgt id='3433'>0.77465E+02</wgt>
<wgt id='3434'>0.78764E+02</wgt>
<wgt id='3435'>0.78908E+02</wgt>
<wgt id='3436'>0.78169E+02</wgt>
<wgt id='3437'>0.78717E+02</wgt>
<wgt id='3438'>0.77630E+02</wgt>
<wgt id='3439'>0.78036E+02</wgt>
<wgt id='3440'>0.78552E+02</wgt>
<wgt id='3441'>0.78221E+02</wgt>
<wgt id='3442'>0.76955E+02</wgt>
<wgt id='3443'>0.78492E+02</wgt>
<wgt id='3444'>0.77919E+02</wgt>
<wgt id='3445'>0.78109E+02</wgt>
<wgt id='3446'>0.78596E+02</wgt>
<wgt id='3447'>0.78985E+02</wgt>
<wgt id='3448'>0.79586E+02</wgt>
<wgt id='3449'>0.79203E+02</wgt>
<wgt id='3450'>0.78388E+02</wgt>
<wgt id='3451'>0.79293E+02</wgt>
<wgt id='3452'>0.78231E+02</wgt>
<wgt id='3453'>0.77375E+02</wgt>
<wgt id='3454'>0.78003E+02</wgt>
<wgt id='3455'>0.79164E+02</wgt>
<wgt id='3456'>0.78548E+02</wgt>
<wgt id='3457'>0.79396E+02</wgt>
<wgt id='3458'>0.78397E+02</wgt>
<wgt id='3459'>0.78264E+02</wgt>
<wgt id='3460'>0.78227E+02</wgt>
<wgt id='3461'>0.77443E+02</wgt>
<wgt id='3462'>0.78399E+02</wgt>
<wgt id='3463'>0.77397E+02</wgt>
<wgt id='3464'>0.78894E+02</wgt>
<wgt id='3465'>0.78941E+02</wgt>
<wgt id='3466'>0.78707E+02</wgt>
<wgt id='3467'>0.78069E+02</wgt>
<wgt id='3468'>0.77810E+02</wgt>
<wgt id='3469'>0.78157E+02</wgt>
<wgt id='3470'>0.78085E+02</wgt>
<wgt id='3471'>0.78178E+02</wgt>
<wgt id='3472'>0.77459E+02</wgt>
<wgt id='3473'>0.79268E+02</wgt>
<wgt id='3474'>0.78075E+02</wgt>
<wgt id='3475'>0.78740E+02</wgt>
<wgt id='3476'>0.78280E+02</wgt>
<wgt id='3477'>0.77839E+02</wgt>
<wgt id='3478'>0.79390E+02</wgt>
<wgt id='3479'>0.78745E+02</wgt>
<wgt id='3480'>0.78360E+02</wgt>
<wgt id='3481'>0.78761E+02</wgt>
<wgt id='3482'>0.78545E+02</wgt>
<wgt id='3483'>0.77725E+02</wgt>
<wgt id='3484'>0.77930E+02</wgt>
<wgt id='3485'>0.78019E+02</wgt>
<wgt id='3486'>0.76647E+02</wgt>
<wgt id='3487'>0.78561E+02</wgt>
<wgt id='3488'>0.78775E+02</wgt>
<wgt id='3489'>0.77457E+02</wgt>
<wgt id='3490'>0.79120E+02</wgt>
<wgt id='3491'>0.78958E+02</wgt>
<wgt id='3492'>0.78409E+02</wgt>
<wgt id='3493'>0.78518E+02</wgt>
<wgt id='3494'>0.76228E+02</wgt>
<wgt id='3495'>0.78491E+02</wgt>
<wgt id='3496'>0.77586E+02</wgt>
<wgt id='3497'>0.78012E+02</wgt>
<wgt id='3498'>0.79046E+02</wgt>
<wgt id='3499'>0.78040E+02</wgt>
<wgt id='3500'>0.79256E+02</wgt>
</rwgt>
</event>
<event>
     13 322200  8.11039E+01  2.69915E+01 -1.00000E+00  1.53749E-01
       2    -1     0     0   503     0  0.000000000E+00  0.000000000E+00  1.301419792E+03  1.301419792E+03  0.000000000E+00  0.00000E+00  9.000E+00
      21    -1     0     0   502   503  0.000000000E+00  0.000000000E+00 -1.489652830E+02  1.489652830E+02  0.000000000E+00  0.00000E+00  9.000E+00
       6     2     1     2   502     0  1.053435567E+02  1.060805296E+01  1.910744699E+02  2.788825634E+02  1.733673423E+02  0.00000E+00  9.000E+00
      -6     2     1     2     0   512 -1.288296846E+02  2.693960288E+00  5.137968810E+00  2.148795540E+02  1.718792569E+02  0.00000E+00  9.000E+00
       2     1     1     2   512     0  2.348612790E+01 -1.330201325E+01  9.562420698E+02  9.566229570E+02  2.100000000E-01  0.00000E+00  9.000E+00
      24     2     3     3     0     0  4.854875115E+01  7.446471025E+01  1.198399632E+02  1.675125442E+02  7.613712225E+01  0.00000E+00  9.000E+00
       5     1     3     3   502     0  5.679480560E+01 -6.385665729E+01  7.123450675E+01  1.113700192E+02  5.060000000E+00  0.00000E+00 -1.000E+00
     -24     2     4     4     0     0 -1.396251181E+02  2.956070005E+01 -3.270745491E+01  1.669604265E+02  8.023090317E+01  0.00000E+00  9.000E+00
      -5     1     4     4     0   512  1.079543341E+01 -2.686673976E+01  3.784542372E+01  4.791912755E+01  5.060000000E+00  0.00000E+00  1.000E+00
     -11     1     6     6     0     0  5.405032093E+00  4.013088955E+01  5.884536505E+00  4.091858304E+01  5.100000000E-04  0.00000E+00  1.000E+00
      12     1     6     6     0     0  4.314371906E+01  3.433382070E+01  1.139554267E+02  1.265939612E+02  0.000000000E+00  0.00000E+00 -1.000E+00
      15     1     8     8     0     0 -1.357783522E+02  3.437923243E+01 -6.702694113E+00  1.402347189E+02  1.777000000E+00  0.00000E+00 -1.000E+00
     -16     1     8     8     0     0 -3.846765876E+00 -4.818532380E+00 -2.600476080E+01  2.672570759E+01  0.000000000E+00  0.00000E+00  1.000E+00
#rwgt            1           1   863.04897690423365               10       23633           0
<rwgt>
<wgt id='1001'>0.81104E+02</wgt>
<wgt id='1002'>0.80546E+02</wgt>
<wgt id='1003'>0.83317E+02</wgt>
<wgt id='1004'>0.73068E+02</wgt>
<wgt id='1005'>0.72090E+02</wgt>
<wgt id='1006'>0.75318E+02</wgt>
<wgt id='1007'>0.89707E+02</wgt>
<wgt id='1008'>0.89916E+02</wgt>
<wgt id='1009'>0.91709E+02</wgt>
<wgt id='2000'>0.81104E+02</wgt>
<wgt id='2001'>0.81153E+02</wgt>
<wgt id='2002'>0.80927E+02</wgt>
<wgt id='2003'>0.81060E+02</wgt>
<wgt id='2004'>0.81272E+02</wgt>
<wgt id='2005'>0.81138E+02</wgt>
<wgt id='2006'>0.81263E+02</wgt>
<wgt id='2007'>0.81229E+02</wgt>
<wgt id='2008'>0.81391E+02</wgt>
<wgt id='2009'>0.81029E+02</wgt>
<wgt id='2010'>0.81059E+02</wgt>
<wgt id='2011'>0.80866E+02</wgt>
<wgt id='2012'>0.81249E+02</wgt>
<wgt id='2013'>0.81223E+02</wgt>
<wgt id='2014'>0.81332E+02</wgt>
<wgt id='2015'>0.81258E+02</wgt>
<wgt id='2016'>0.81151E+02</wgt>
<wgt id='2017'>0.81151E+02</wgt>
<wgt id='2018'>0.80991E+02</wgt>
<wgt id='2019'>0.81217E+02</wgt>
<wgt id='2020'>0.80956E+02</wgt>
<wgt id='2021'>0.81028E+02</wgt>
<wgt id='2022'>0.81047E+02</wgt>
<wgt id='2023'>0.81143E+02</wgt>
<wgt id='2024'>0.81002E+02</wgt>
<wgt id='2025'>0.81067E+02</wgt>
<wgt id='2026'>0.81055E+02</wgt>
<wgt id='2027'>0.80917E+02</wgt>
<wgt id='2028'>0.81159E+02</wgt>
<wgt id='2029'>0.80833E+02</wgt>
<wgt id='2030'>0.81111E+02</wgt>
<wgt id='2031'>0.80862E+02</wgt>
<wgt id='2032'>0.81140E+02</wgt>
<wgt id='2033'>0.81021E+02</wgt>
<wgt id='2034'>0.80981E+02</wgt>
<wgt id='2035'>0.81112E+02</wgt>
<wgt id='2036'>0.81251E+02</wgt>
<wgt id='2037'>0.81086E+02</wgt>
<wgt id='2038'>0.81046E+02</wgt>
<wgt id='2039'>0.81117E+02</wgt>
<wgt id='2040'>0.81033E+02</wgt>
<wgt id='2041'>0.81104E+02</wgt>
<wgt id='2042'>0.81140E+02</wgt>
<wgt id='2043'>0.81079E+02</wgt>
<wgt id='2044'>0.81158E+02</wgt>
<wgt id='2045'>0.81116E+02</wgt>
<wgt id='2046'>0.81099E+02</wgt>
<wgt id='2047'>0.81088E+02</wgt>
<wgt id='2048'>0.81060E+02</wgt>
<wgt id='2049'>0.81044E+02</wgt>
<wgt id='2050'>0.81064E+02</wgt>
<wgt id='2051'>0.81093E+02</wgt>
<wgt id='2052'>0.81179E+02</wgt>
<wgt id='2053'>0.81091E+02</wgt>
<wgt id='2054'>0.81093E+02</wgt>
<wgt id='2055'>0.81114E+02</wgt>
<wgt id='2056'>0.81067E+02</wgt>
<wgt id='2057'>0.81128E+02</wgt>
<wgt id='2058'>0.81121E+02</wgt>
<wgt id='2059'>0.81107E+02</wgt>
<wgt id='2060'>0.81102E+02</wgt>
<wgt id='2061'>0.81090E+02</wgt>
<wgt id='2062'>0.81163E+02</wgt>
<wgt id='2063'>0.81121E+02</wgt>
<wgt id='2064'>0.81122E+02</wgt>
<wgt id='2065'>0.81167E+02</wgt>
<wgt id='2066'>0.81096E+02</wgt>
<wgt id='2067'>0.81118E+02</wgt>
<wgt id='2068'>0.81122E+02</wgt>
<wgt id='2069'>0.81108E+02</wgt>
<wgt id='2070'>0.81108E+02</wgt>
<wgt id='2071'>0.81102E+02</wgt>
<wgt id='2072'>0.81105E+02</wgt>
<wgt id='2073'>0.81121E+02</wgt>
<wgt id='2074'>0.81082E+02</wgt>
<wgt id='2075'>0.81092E+02</wgt>
<wgt id='2076'>0.81093E+02</wgt>
<wgt id='2077'>0.81144E+02</wgt>
<wgt id='2078'>0.81112E+02</wgt>
<wgt id='2079'>0.81086E+02</wgt>
<wgt id='2080'>0.81108E+02</wgt>
<wgt id='2081'>0.81095E+02</wgt>
<wgt id='2082'>0.81110E+02</wgt>
<wgt id='2083'>0.81130E+02</wgt>
<wgt id='2084'>0.81111E+02</wgt>
<wgt id='2085'>0.81104E+02</wgt>
<wgt id='2086'>0.81094E+02</wgt>
<wgt id='2087'>0.81112E+02</wgt>
<wgt id='2088'>0.81101E+02</wgt>
<wgt id='2089'>0.81096E+02</wgt>
<wgt id='2090'>0.81118E+02</wgt>
<wgt id='2091'>0.81106E+02</wgt>
<wgt id='2092'>0.81123E+02</wgt>
<wgt id='2093'>0.81092E+02</wgt>
<wgt id='2094'>0.81109E+02</wgt>
<wgt id='2095'>0.81118E+02</wgt>
<wgt id='2096'>0.81093E+02</wgt>
<wgt id='2097'>0.81115E+02</wgt>
<wgt id='2098'>0.81098E+02</wgt>
<wgt id='2099'>0.81114E+02</wgt>
<wgt id='2100'>0.81104E+02</wgt>
<wgt id='2101'>0.78960E+02</wgt>
<wgt id='2102'>0.83318E+02</wgt>
<wgt id='2200'>0.81163E+02</wgt>
<wgt id='2201'>0.71016E+02</wgt>
<wgt id='2202'>0.72956E+02</wgt>
<wgt id='2203'>0.75175E+02</wgt>
<wgt id='2204'>0.77145E+02</wgt>
<wgt id='2205'>0.80203E+02</wgt>
<wgt id='2206'>0.82338E+02</wgt>
<wgt id='2207'>0.85155E+02</wgt>
<wgt id='2208'>0.87296E+02</wgt>
<wgt id='2300'>0.84516E+02</wgt>
<wgt id='2301'>0.84603E+02</wgt>
<wgt id='2302'>0.84475E+02</wgt>
<wgt id='2303'>0.84557E+02</wgt>
<wgt id='2304'>0.84695E+02</wgt>
<wgt id='2305'>0.84661E+02</wgt>
<wgt id='2306'>0.84486E+02</wgt>
<wgt id='2307'>0.84699E+02</wgt>
<wgt id='2308'>0.84460E+02</wgt>
<wgt id='2309'>0.84724E+02</wgt>
<wgt id='2310'>0.84387E+02</wgt>
<wgt id='2311'>0.84396E+02</wgt>
<wgt id='2312'>0.84631E+02</wgt>
<wgt id='2313'>0.84543E+02</wgt>
<wgt id='2314'>0.84624E+02</wgt>
<wgt id='2315'>0.84411E+02</wgt>
<wgt id='2316'>0.84559E+02</wgt>
<wgt id='2317'>0.84609E+02</wgt>
<wgt id='2318'>0.84678E+02</wgt>
<wgt id='2319'>0.84376E+02</wgt>
<wgt id='2320'>0.84375E+02</wgt>
<wgt id='2321'>0.84352E+02</wgt>
<wgt id='2322'>0.84500E+02</wgt>
<wgt id='2323'>0.84387E+02</wgt>
<wgt id='2324'>0.84335E+02</wgt>
<wgt id='2325'>0.84549E+02</wgt>
<wgt id='2326'>0.84600E+02</wgt>
<wgt id='2327'>0.84539E+02</wgt>
<wgt id='2328'>0.84284E+02</wgt>
<wgt id='2329'>0.84377E+02</wgt>
<wgt id='2330'>0.84786E+02</wgt>
<wgt id='2331'>0.84642E+02</wgt>
<wgt id='2332'>0.84567E+02</wgt>
<wgt id='2333'>0.84626E+02</wgt>
<wgt id='2334'>0.84548E+02</wgt>
<wgt id='2335'>0.84648E+02</wgt>
<wgt id='2336'>0.84574E+02</wgt>
<wgt id='2337'>0.84528E+02</wgt>
<wgt id='2338'>0.84525E+02</wgt>
<wgt id='2339'>0.84524E+02</wgt>
<wgt id='2340'>0.84516E+02</wgt>
<wgt id='2341'>0.84570E+02</wgt>
<wgt id='2342'>0.84414E+02</wgt>
<wgt id='2343'>0.84401E+02</wgt>
<wgt id='2344'>0.84552E+02</wgt>
<wgt id='2345'>0.84578E+02</wgt>
<wgt id='2346'>0.84613E+02</wgt>
<wgt id='2347'>0.84513E+02</wgt>
<wgt id='2348'>0.84556E+02</wgt>
<wgt id='2349'>0.84499E+02</wgt>
<wgt id='2350'>0.84457E+02</wgt>
<wgt id='2351'>0.84614E+02</wgt>
<wgt id='2352'>0.84463E+02</wgt>
<wgt id='2353'>0.84491E+02</wgt>
<wgt id='2354'>0.84523E+02</wgt>
<wgt id='2355'>0.84432E+02</wgt>
<wgt id='2356'>0.84527E+02</wgt>
<wgt id='2357'>0.84499E+02</wgt>
<wgt id='2358'>0.84463E+02</wgt>
<wgt id='2359'>0.84514E+02</wgt>
<wgt id='2360'>0.84546E+02</wgt>
<wgt id='2361'>0.84529E+02</wgt>
<wgt id='2362'>0.84541E+02</wgt>
<wgt id='2363'>0.84539E+02</wgt>
<wgt id='2364'>0.84486E+02</wgt>
<wgt id='2365'>0.84498E+02</wgt>
<wgt id='2366'>0.84529E+02</wgt>
<wgt id='2367'>0.84457E+02</wgt>
<wgt id='2368'>0.84540E+02</wgt>
<wgt id='2369'>0.84499E+02</wgt>
<wgt id='2370'>0.84524E+02</wgt>
<wgt id='2371'>0.84495E+02</wgt>
<wgt id='2372'>0.84516E+02</wgt>
<wgt id='2373'>0.84485E+02</wgt>
<wgt id='2374'>0.84555E+02</wgt>
<wgt id='2375'>0.84512E+02</wgt>
<wgt id='2376'>0.84519E+02</wgt>
<wgt id='2377'>0.84531E+02</wgt>
<wgt id='2378'>0.84537E+02</wgt>
<wgt id='2379'>0.84508E+02</wgt>
<wgt id='2380'>0.84507E+02</wgt>
<wgt id='2381'>0.84519E+02</wgt>
<wgt id='2382'>0.84505E+02</wgt>
<wgt id='2383'>0.84514E+02</wgt>
<wgt id='2384'>0.84506E+02</wgt>
<wgt id='2385'>0.84524E+02</wgt>
<wgt id='2386'>0.84493E+02</wgt>
<wgt id='2387'>0.84502E+02</wgt>
<wgt id='2388'>0.84512E+02</wgt>
<wgt id='2389'>0.84518E+02</wgt>
<wgt id='2390'>0.84525E+02</wgt>
<wgt id='2391'>0.84522E+02</wgt>
<wgt id='2392'>0.84519E+02</wgt>
<wgt id='2393'>0.84516E+02</wgt>
<wgt id='2394'>0.84534E+02</wgt>
<wgt id='2395'>0.84519E+02</wgt>
<wgt id='2396'>0.84511E+02</wgt>
<wgt id='2397'>0.84501E+02</wgt>
<wgt id='2398'>0.84513E+02</wgt>
<wgt id='2399'>0.84528E+02</wgt>
<wgt id='2400'>0.84521E+02</wgt>
<wgt id='2401'>0.82305E+02</wgt>
<wgt id='2402'>0.86753E+02</wgt>
<wgt id='2500'>0.81362E+02</wgt>
<wgt id='2501'>0.85779E+02</wgt>
<wgt id='2600'>0.78847E+02</wgt>
<wgt id='2601'>0.78823E+02</wgt>
<wgt id='2602'>0.78765E+02</wgt>
<wgt id='2603'>0.78817E+02</wgt>
<wgt id='2604'>0.78880E+02</wgt>
<wgt id='2605'>0.78742E+02</wgt>
<wgt id='2606'>0.78705E+02</wgt>
<wgt id='2607'>0.78953E+02</wgt>
<wgt id='2608'>0.78789E+02</wgt>
<wgt id='2609'>0.78786E+02</wgt>
<wgt id='2610'>0.78809E+02</wgt>
<wgt id='2611'>0.78787E+02</wgt>
<wgt id='2612'>0.79106E+02</wgt>
<wgt id='2613'>0.78820E+02</wgt>
<wgt id='2614'>0.78829E+02</wgt>
<wgt id='2615'>0.78726E+02</wgt>
<wgt id='2616'>0.78828E+02</wgt>
<wgt id='2617'>0.78724E+02</wgt>
<wgt id='2618'>0.78692E+02</wgt>
<wgt id='2619'>0.78886E+02</wgt>
<wgt id='2620'>0.78849E+02</wgt>
<wgt id='2621'>0.78839E+02</wgt>
<wgt id='2622'>0.78941E+02</wgt>
<wgt id='2623'>0.78842E+02</wgt>
<wgt id='2624'>0.78849E+02</wgt>
<wgt id='2625'>0.78807E+02</wgt>
<wgt id='2626'>0.78842E+02</wgt>
<wgt id='2627'>0.78832E+02</wgt>
<wgt id='2628'>0.78855E+02</wgt>
<wgt id='2629'>0.78854E+02</wgt>
<wgt id='2630'>0.78857E+02</wgt>
<wgt id='2631'>0.78826E+02</wgt>
<wgt id='2632'>0.78836E+02</wgt>
<wgt id='2633'>0.78833E+02</wgt>
<wgt id='2634'>0.78833E+02</wgt>
<wgt id='2635'>0.78830E+02</wgt>
<wgt id='2636'>0.78845E+02</wgt>
<wgt id='2637'>0.78845E+02</wgt>
<wgt id='2638'>0.78848E+02</wgt>
<wgt id='2639'>0.78849E+02</wgt>
<wgt id='2640'>0.78843E+02</wgt>
<wgt id='2641'>0.78840E+02</wgt>
<wgt id='2642'>0.78849E+02</wgt>
<wgt id='2643'>0.78841E+02</wgt>
<wgt id='2644'>0.78847E+02</wgt>
<wgt id='2645'>0.78843E+02</wgt>
<wgt id='2646'>0.78844E+02</wgt>
<wgt id='2647'>0.78848E+02</wgt>
<wgt id='2648'>0.78848E+02</wgt>
<wgt id='2649'>0.78855E+02</wgt>
<wgt id='2650'>0.78851E+02</wgt>
<wgt id='2651'>0.77514E+02</wgt>
<wgt id='2652'>0.80080E+02</wgt>
<wgt id='2700'>0.76244E+02</wgt>
<wgt id='2701'>0.77514E+02</wgt>
<wgt id='2702'>0.78221E+02</wgt>
<wgt id='2703'>0.79383E+02</wgt>
<wgt id='2704'>0.80080E+02</wgt>
<wgt id='2705'>0.81278E+02</wgt>
<wgt id='2800'>0.80199E+02</wgt>
<wgt id='4000'>0.80324E+02</wgt>
<wgt id='4001'>0.80684E+02</wgt>
<wgt id='4002'>0.80261E+02</wgt>
<wgt id='4003'>0.80696E+02</wgt>
<wgt id='4004'>0.79980E+02</wgt>
<wgt id='4005'>0.80078E+02</wgt>
<wgt id='4006'>0.80587E+02</wgt>
<wgt id='4007'>0.81105E+02</wgt>
<wgt id='4008'>0.79554E+02</wgt>
<wgt id='4009'>0.80710E+02</wgt>
<wgt id='4010'>0.79965E+02</wgt>
<wgt id='4011'>0.80639E+02</wgt>
<wgt id='4012'>0.80046E+02</wgt>
<wgt id='4013'>0.80910E+02</wgt>
<wgt id='4014'>0.79834E+02</wgt>
<wgt id='4015'>0.80083E+02</wgt>
<wgt id='4016'>0.80672E+02</wgt>
<wgt id='4017'>0.80275E+02</wgt>
<wgt id='4018'>0.80420E+02</wgt>
<wgt id='4019'>0.80775E+02</wgt>
<wgt id='4020'>0.79659E+02</wgt>
<wgt id='4021'>0.80415E+02</wgt>
<wgt id='4022'>0.80145E+02</wgt>
<wgt id='4023'>0.80206E+02</wgt>
<wgt id='4024'>0.80568E+02</wgt>
<wgt id='4025'>0.80508E+02</wgt>
<wgt id='4026'>0.79892E+02</wgt>
<wgt id='4027'>0.80281E+02</wgt>
<wgt id='4028'>0.80418E+02</wgt>
<wgt id='4029'>0.79748E+02</wgt>
<wgt id='4030'>0.80296E+02</wgt>
<wgt id='4031'>0.80200E+02</wgt>
<wgt id='4032'>0.80460E+02</wgt>
<wgt id='4033'>0.80353E+02</wgt>
<wgt id='4034'>0.80113E+02</wgt>
<wgt id='4035'>0.81297E+02</wgt>
<wgt id='4036'>0.79596E+02</wgt>
<wgt id='4037'>0.81568E+02</wgt>
<wgt id='4038'>0.79334E+02</wgt>
<wgt id='4039'>0.81513E+02</wgt>
<wgt id='4040'>0.79100E+02</wgt>
<wgt id='4041'>0.80239E+02</wgt>
<wgt id='4042'>0.80303E+02</wgt>
<wgt id='4043'>0.79411E+02</wgt>
<wgt id='4044'>0.80525E+02</wgt>
<wgt id='4045'>0.81664E+02</wgt>
<wgt id='4046'>0.79726E+02</wgt>
<wgt id='4047'>0.79488E+02</wgt>
<wgt id='4048'>0.80720E+02</wgt>
<wgt id='4049'>0.80203E+02</wgt>
<wgt id='4050'>0.80420E+02</wgt>
<wgt id='4051'>0.81172E+02</wgt>
<wgt id='4052'>0.79544E+02</wgt>
<wgt id='4053'>0.80965E+02</wgt>
<wgt id='4054'>0.79381E+02</wgt>
<wgt id='4055'>0.80710E+02</wgt>
<wgt id='4056'>0.79906E+02</wgt>
<wgt id='4057'>0.79564E+02</wgt>
<wgt id='4058'>0.80822E+02</wgt>
<wgt id='4100'>0.80865E+02</wgt>
<wgt id='4101'>0.80608E+02</wgt>
<wgt id='4102'>0.80016E+02</wgt>
<wgt id='4103'>0.79688E+02</wgt>
<wgt id='4200'>0.77436E+02</wgt>
<wgt id='4201'>0.77559E+02</wgt>
<wgt id='4202'>0.77576E+02</wgt>
<wgt id='4203'>0.76887E+02</wgt>
<wgt id='4204'>0.77903E+02</wgt>
<wgt id='4205'>0.77373E+02</wgt>
<wgt id='4206'>0.77635E+02</wgt>
<wgt id='4207'>0.77331E+02</wgt>
<wgt id='4208'>0.77533E+02</wgt>
<wgt id='4209'>0.77624E+02</wgt>
<wgt id='4210'>0.77437E+02</wgt>
<wgt id='4211'>0.78276E+02</wgt>
<wgt id='4212'>0.76794E+02</wgt>
<wgt id='4213'>0.77593E+02</wgt>
<wgt id='4214'>0.77207E+02</wgt>
<wgt id='4215'>0.77558E+02</wgt>
<wgt id='4216'>0.77160E+02</wgt>
<wgt id='4217'>0.77166E+02</wgt>
<wgt id='4218'>0.77659E+02</wgt>
<wgt id='4219'>0.76463E+02</wgt>
<wgt id='4220'>0.78353E+02</wgt>
<wgt id='4221'>0.76968E+02</wgt>
<wgt id='4222'>0.78071E+02</wgt>
<wgt id='4223'>0.77771E+02</wgt>
<wgt id='4224'>0.76783E+02</wgt>
<wgt id='4225'>0.76228E+02</wgt>
<wgt id='4226'>0.78627E+02</wgt>
<wgt id='4227'>0.77983E+02</wgt>
<wgt id='4228'>0.76979E+02</wgt>
<wgt id='4229'>0.76748E+02</wgt>
<wgt id='4230'>0.77905E+02</wgt>
<wgt id='4231'>0.77505E+02</wgt>
<wgt id='4232'>0.77281E+02</wgt>
<wgt id='4233'>0.77691E+02</wgt>
<wgt id='4234'>0.76979E+02</wgt>
<wgt id='4235'>0.77806E+02</wgt>
<wgt id='4236'>0.77158E+02</wgt>
<wgt id='4237'>0.77592E+02</wgt>
<wgt id='4238'>0.77001E+02</wgt>
<wgt id='4239'>0.77909E+02</wgt>
<wgt id='4240'>0.76285E+02</wgt>
<wgt id='4241'>0.77148E+02</wgt>
<wgt id='4242'>0.77738E+02</wgt>
<wgt id='4243'>0.77411E+02</wgt>
<wgt id='4244'>0.77709E+02</wgt>
<wgt id='4245'>0.76768E+02</wgt>
<wgt id='4246'>0.78015E+02</wgt>
<wgt id='4247'>0.77168E+02</wgt>
<wgt id='4248'>0.77550E+02</wgt>
<wgt id='4249'>0.78535E+02</wgt>
<wgt id='4250'>0.76171E+02</wgt>
<wgt id='4251'>0.76953E+02</wgt>
<wgt id='4252'>0.77681E+02</wgt>
<wgt id='4253'>0.77226E+02</wgt>
<wgt id='4254'>0.77510E+02</wgt>
<wgt id='4255'>0.77716E+02</wgt>
<wgt id='4256'>0.77223E+02</wgt>
<wgt id='4257'>0.76076E+02</wgt>
<wgt id='4258'>0.77826E+02</wgt>
<wgt id='4300'>0.79618E+02</wgt>
<wgt id='4301'>0.78750E+02</wgt>
<wgt id='5000'>0.80019E+02</wgt>
<wgt id='5001'>0.80050E+02</wgt>
<wgt id='5002'>0.79979E+02</wgt>
<wgt id='5003'>0.80036E+02</wgt>
<wgt id='5004'>0.80004E+02</wgt>
<wgt id='5005'>0.80022E+02</wgt>
<wgt id='5006'>0.80014E+02</wgt>
<wgt id='5007'>0.80058E+02</wgt>
<wgt id='5008'>0.79988E+02</wgt>
<wgt id='5009'>0.80123E+02</wgt>
<wgt id='5010'>0.79912E+02</wgt>
<wgt id='5011'>0.80155E+02</wgt>
<wgt id='5012'>0.79889E+02</wgt>
<wgt id='5013'>0.80158E+02</wgt>
<wgt id='5014'>0.79921E+02</wgt>
<wgt id='5015'>0.79672E+02</wgt>
<wgt id='5016'>0.79672E+02</wgt>
<wgt id='5017'>0.80399E+02</wgt>
<wgt id='5018'>0.79763E+02</wgt>
<wgt id='5019'>0.80257E+02</wgt>
<wgt id='5020'>0.79693E+02</wgt>
<wgt id='5021'>0.80093E+02</wgt>
<wgt id='5022'>0.79904E+02</wgt>
<wgt id='5023'>0.79951E+02</wgt>
<wgt id='5024'>0.80183E+02</wgt>
<wgt id='5025'>0.79798E+02</wgt>
<wgt id='5026'>0.80265E+02</wgt>
<wgt id='5027'>0.80055E+02</wgt>
<wgt id='5028'>0.79923E+02</wgt>
<wgt id='5029'>0.80667E+02</wgt>
<wgt id='5030'>0.79653E+02</wgt>
<wgt id='5031'>0.79687E+02</wgt>
<wgt id='5032'>0.81036E+02</wgt>
<wgt id='5033'>0.80016E+02</wgt>
<wgt id='5034'>0.80023E+02</wgt>
<wgt id='5035'>0.80025E+02</wgt>
<wgt id='5036'>0.80013E+02</wgt>
<wgt id='5037'>0.79904E+02</wgt>
<wgt id='5038'>0.80085E+02</wgt>
<wgt id='5039'>0.80197E+02</wgt>
<wgt id='5040'>0.79575E+02</wgt>
<wgt id='5041'>0.80188E+02</wgt>
<wgt id='5042'>0.79849E+02</wgt>
<wgt id='5043'>0.80137E+02</wgt>
<wgt id='5044'>0.79944E+02</wgt>
<wgt id='5045'>0.79897E+02</wgt>
<wgt id='5046'>0.80254E+02</wgt>
<wgt id='5047'>0.80060E+02</wgt>
<wgt id='5048'>0.79837E+02</wgt>
<wgt id='5049'>0.79986E+02</wgt>
<wgt id='5050'>0.80093E+02</wgt>
<wgt id='5051'>0.80142E+02</wgt>
<wgt id='5052'>0.79918E+02</wgt>
<wgt id='5053'>0.79955E+02</wgt>
<wgt id='5054'>0.80166E+02</wgt>
<wgt id='5055'>0.80062E+02</wgt>
<wgt id='5056'>0.80028E+02</wgt>
<wgt id='5057'>0.79799E+02</wgt>
<wgt id='5058'>0.80174E+02</wgt>
<wgt id='5059'>0.79986E+02</wgt>
<wgt id='5060'>0.80043E+02</wgt>
<wgt id='5061'>0.80240E+02</wgt>
<wgt id='5062'>0.80061E+02</wgt>
<wgt id='5063'>0.80264E+02</wgt>
<wgt id='5064'>0.79981E+02</wgt>
<wgt id='5100'>0.80019E+02</wgt>
<wgt id='5101'>0.80035E+02</wgt>
<wgt id='6000'>0.80011E+02</wgt>
<wgt id='6001'>0.80048E+02</wgt>
<wgt id='6002'>0.80013E+02</wgt>
<wgt id='6003'>0.79934E+02</wgt>
<wgt id='6004'>0.80015E+02</wgt>
<wgt id='6005'>0.79829E+02</wgt>
<wgt id='6006'>0.80195E+02</wgt>
<wgt id='6007'>0.79824E+02</wgt>
<wgt id='6008'>0.79582E+02</wgt>
<wgt id='6009'>0.80215E+02</wgt>
<wgt id='6010'>0.79110E+02</wgt>
<wgt id='6011'>0.79983E+02</wgt>
<wgt id='6012'>0.80270E+02</wgt>
<wgt id='6013'>0.79770E+02</wgt>
<wgt id='6014'>0.79898E+02</wgt>
<wgt id='6015'>0.79457E+02</wgt>
<wgt id='6016'>0.80099E+02</wgt>
<wgt id='6017'>0.79980E+02</wgt>
<wgt id='6018'>0.79833E+02</wgt>
<wgt id='6019'>0.80034E+02</wgt>
<wgt id='6020'>0.80171E+02</wgt>
<wgt id='6021'>0.80043E+02</wgt>
<wgt id='6022'>0.80036E+02</wgt>
<wgt id='6023'>0.80033E+02</wgt>
<wgt id='6024'>0.80087E+02</wgt>
<wgt id='6025'>0.80241E+02</wgt>
<wgt id='6026'>0.80028E+02</wgt>
<wgt id='6027'>0.80022E+02</wgt>
<wgt id='6028'>0.79866E+02</wgt>
<wgt id='6029'>0.79890E+02</wgt>
<wgt id='6030'>0.80382E+02</wgt>
<wgt id='6031'>0.79836E+02</wgt>
<wgt id='6032'>0.80044E+02</wgt>
<wgt id='6033'>0.79894E+02</wgt>
<wgt id='6034'>0.80241E+02</wgt>
<wgt id='6035'>0.80057E+02</wgt>
<wgt id='6036'>0.80459E+02</wgt>
<wgt id='6037'>0.80022E+02</wgt>
<wgt id='6038'>0.80072E+02</wgt>
<wgt id='6039'>0.80150E+02</wgt>
<wgt id='6040'>0.80000E+02</wgt>
<wgt id='6041'>0.78824E+02</wgt>
<wgt id='6042'>0.80796E+02</wgt>
<wgt id='7000'>0.79358E+02</wgt>
<wgt id='7001'>0.78834E+02</wgt>
<wgt id='7002'>0.78984E+02</wgt>
<wgt id='7003'>0.78875E+02</wgt>
<wgt id='7004'>0.78943E+02</wgt>
<wgt id='7005'>0.78992E+02</wgt>
<wgt id='7006'>0.78826E+02</wgt>
<wgt id='7007'>0.79335E+02</wgt>
<wgt id='7008'>0.78495E+02</wgt>
<wgt id='7009'>0.78616E+02</wgt>
<wgt id='7010'>0.79213E+02</wgt>
<wgt id='7011'>0.79132E+02</wgt>
<wgt id='7012'>0.78688E+02</wgt>
<wgt id='7013'>0.78789E+02</wgt>
<wgt id='7014'>0.79021E+02</wgt>
<wgt id='7015'>0.78836E+02</wgt>
<wgt id='7016'>0.78771E+02</wgt>
<wgt id='7017'>0.78901E+02</wgt>
<wgt id='7018'>0.78920E+02</wgt>
<wgt id='7019'>0.78773E+02</wgt>
<wgt id='7020'>0.79052E+02</wgt>
<wgt id='7021'>0.79097E+02</wgt>
<wgt id='7022'>0.78719E+02</wgt>
<wgt id='7023'>0.78617E+02</wgt>
<wgt id='7024'>0.79224E+02</wgt>
<wgt id='7025'>0.78106E+02</wgt>
<wgt id='7026'>0.79680E+02</wgt>
<wgt id='7027'>0.78581E+02</wgt>
<wgt id='7028'>0.79271E+02</wgt>
<wgt id='8000'>0.79925E+02</wgt>
<wgt id='8001'>0.79916E+02</wgt>
<wgt id='8002'>0.79946E+02</wgt>
<wgt id='8003'>0.79927E+02</wgt>
<wgt id='8004'>0.79923E+02</wgt>
<wgt id='8005'>0.79806E+02</wgt>
<wgt id='8006'>0.79998E+02</wgt>
<wgt id='8007'>0.80075E+02</wgt>
<wgt id='8008'>0.80078E+02</wgt>
<wgt id='8009'>0.80204E+02</wgt>
<wgt id='8010'>0.79845E+02</wgt>
<wgt id='8011'>0.79934E+02</wgt>
<wgt id='8012'>0.79657E+02</wgt>
<wgt id='8013'>0.79779E+02</wgt>
<wgt id='8014'>0.80089E+02</wgt>
<wgt id='8015'>0.79879E+02</wgt>
<wgt id='8016'>0.79989E+02</wgt>
<wgt id='8017'>0.79957E+02</wgt>
<wgt id='8018'>0.80098E+02</wgt>
<wgt id='8019'>0.79970E+02</wgt>
<wgt id='8020'>0.79889E+02</wgt>
<wgt id='8021'>0.79859E+02</wgt>
<wgt id='8022'>0.79858E+02</wgt>
<wgt id='8023'>0.79853E+02</wgt>
<wgt id='8024'>0.79714E+02</wgt>
<wgt id='8025'>0.79884E+02</wgt>
<wgt id='8026'>0.80014E+02</wgt>
<wgt id='8027'>0.79975E+02</wgt>
<wgt id='8028'>0.79965E+02</wgt>
<wgt id='8029'>0.79902E+02</wgt>
<wgt id='3000'>0.81104E+02</wgt>
<wgt id='3001'>0.81180E+02</wgt>
<wgt id='3002'>0.80323E+02</wgt>
<wgt id='3003'>0.82138E+02</wgt>
<wgt id='3004'>0.81784E+02</wgt>
<wgt id='3005'>0.80994E+02</wgt>
<wgt id='3006'>0.83176E+02</wgt>
<wgt id='3007'>0.80579E+02</wgt>
<wgt id='3008'>0.80126E+02</wgt>
<wgt id='3009'>0.81713E+02</wgt>
<wgt id='3010'>0.82768E+02</wgt>
<wgt id='3011'>0.82121E+02</wgt>
<wgt id='3012'>0.81449E+02</wgt>
<wgt id='3013'>0.80336E+02</wgt>
<wgt id='3014'>0.80630E+02</wgt>
<wgt id='3015'>0.80928E+02</wgt>
<wgt id='3016'>0.81897E+02</wgt>
<wgt id='3017'>0.82420E+02</wgt>
<wgt id='3018'>0.80875E+02</wgt>
<wgt id='3019'>0.79674E+02</wgt>
<wgt id='3020'>0.80446E+02</wgt>
<wgt id='3021'>0.79731E+02</wgt>
<wgt id='3022'>0.79296E+02</wgt>
<wgt id='3023'>0.79740E+02</wgt>
<wgt id='3024'>0.80070E+02</wgt>
<wgt id='3025'>0.79967E+02</wgt>
<wgt id='3026'>0.80544E+02</wgt>
<wgt id='3027'>0.79991E+02</wgt>
<wgt id='3028'>0.80541E+02</wgt>
<wgt id='3029'>0.82168E+02</wgt>
<wgt id='3030'>0.82411E+02</wgt>
<wgt id='3031'>0.81934E+02</wgt>
<wgt id='3032'>0.82159E+02</wgt>
<wgt id='3033'>0.80440E+02</wgt>
<wgt id='3034'>0.81296E+02</wgt>
<wgt id='3035'>0.81967E+02</wgt>
<wgt id='3036'>0.81045E+02</wgt>
<wgt id='3037'>0.80677E+02</wgt>
<wgt id='3038'>0.80836E+02</wgt>
<wgt id='3039'>0.81385E+02</wgt>
<wgt id='3040'>0.80986E+02</wgt>
<wgt id='3041'>0.81356E+02</wgt>
<wgt id='3042'>0.81028E+02</wgt>
<wgt id='3043'>0.81297E+02</wgt>
<wgt id='3044'>0.81110E+02</wgt>
<wgt id='3045'>0.81248E+02</wgt>
<wgt id='3046'>0.81578E+02</wgt>
<wgt id='3047'>0.79968E+02</wgt>
<wgt id='3048'>0.79945E+02</wgt>
<wgt id='3049'>0.81411E+02</wgt>
<wgt id='3050'>0.82135E+02</wgt>
<wgt id='3051'>0.81323E+02</wgt>
<wgt id='3052'>0.80201E+02</wgt>
<wgt id='3053'>0.80981E+02</wgt>
<wgt id='3054'>0.81118E+02</wgt>
<wgt id='3055'>0.80001E+02</wgt>
<wgt id='3056'>0.80771E+02</wgt>
<wgt id='3057'>0.80444E+02</wgt>
<wgt id='3058'>0.80134E+02</wgt>
<wgt id='3059'>0.82105E+02</wgt>
<wgt id='3060'>0.81225E+02</wgt>
<wgt id='3061'>0.80856E+02</wgt>
<wgt id='3062'>0.80950E+02</wgt>
<wgt id='3063'>0.79503E+02</wgt>
<wgt id='3064'>0.81089E+02</wgt>
<wgt id='3065'>0.80326E+02</wgt>
<wgt id='3066'>0.81661E+02</wgt>
<wgt id='3067'>0.79953E+02</wgt>
<wgt id='3068'>0.81503E+02</wgt>
<wgt id='3069'>0.80876E+02</wgt>
<wgt id='3070'>0.80310E+02</wgt>
<wgt id='3071'>0.82037E+02</wgt>
<wgt id='3072'>0.80857E+02</wgt>
<wgt id='3073'>0.81792E+02</wgt>
<wgt id='3074'>0.81662E+02</wgt>
<wgt id='3075'>0.82195E+02</wgt>
<wgt id='3076'>0.82704E+02</wgt>
<wgt id='3077'>0.80511E+02</wgt>
<wgt id='3078'>0.81498E+02</wgt>
<wgt id='3079'>0.80977E+02</wgt>
<wgt id='3080'>0.81636E+02</wgt>
<wgt id='3081'>0.80073E+02</wgt>
<wgt id='3082'>0.81897E+02</wgt>
<wgt id='3083'>0.81318E+02</wgt>
<wgt id='3084'>0.80912E+02</wgt>
<wgt id='3085'>0.81864E+02</wgt>
<wgt id='3086'>0.80412E+02</wgt>
<wgt id='3087'>0.81492E+02</wgt>
<wgt id='3088'>0.82399E+02</wgt>
<wgt id='3089'>0.83374E+02</wgt>
<wgt id='3090'>0.81323E+02</wgt>
<wgt id='3091'>0.80658E+02</wgt>
<wgt id='3092'>0.82108E+02</wgt>
<wgt id='3093'>0.81515E+02</wgt>
<wgt id='3094'>0.81194E+02</wgt>
<wgt id='3095'>0.80961E+02</wgt>
<wgt id='3096'>0.80463E+02</wgt>
<wgt id='3097'>0.80956E+02</wgt>
<wgt id='3098'>0.81807E+02</wgt>
<wgt id='3099'>0.80166E+02</wgt>
<wgt id='3100'>0.80516E+02</wgt>
<wgt id='3200'>0.78870E+02</wgt>
<wgt id='3201'>0.79224E+02</wgt>
<wgt id='3202'>0.77941E+02</wgt>
<wgt id='3203'>0.78976E+02</wgt>
<wgt id='3204'>0.78335E+02</wgt>
<wgt id='3205'>0.79451E+02</wgt>
<wgt id='3206'>0.79321E+02</wgt>
<wgt id='3207'>0.79496E+02</wgt>
<wgt id='3208'>0.79223E+02</wgt>
<wgt id='3209'>0.78773E+02</wgt>
<wgt id='3210'>0.78873E+02</wgt>
<wgt id='3211'>0.79423E+02</wgt>
<wgt id='3212'>0.78124E+02</wgt>
<wgt id='3213'>0.78778E+02</wgt>
<wgt id='3214'>0.78406E+02</wgt>
<wgt id='3215'>0.78888E+02</wgt>
<wgt id='3216'>0.79488E+02</wgt>
<wgt id='3217'>0.79115E+02</wgt>
<wgt id='3218'>0.78961E+02</wgt>
<wgt id='3219'>0.78691E+02</wgt>
<wgt id='3220'>0.78341E+02</wgt>
<wgt id='3221'>0.79452E+02</wgt>
<wgt id='3222'>0.79716E+02</wgt>
<wgt id='3223'>0.78775E+02</wgt>
<wgt id='3224'>0.78675E+02</wgt>
<wgt id='3225'>0.79392E+02</wgt>
<wgt id='3226'>0.78984E+02</wgt>
<wgt id='3227'>0.78327E+02</wgt>
<wgt id='3228'>0.78397E+02</wgt>
<wgt id='3229'>0.79245E+02</wgt>
<wgt id='3230'>0.79398E+02</wgt>
<wgt id='3231'>0.79114E+02</wgt>
<wgt id='3232'>0.79198E+02</wgt>
<wgt id='3233'>0.79366E+02</wgt>
<wgt id='3234'>0.78774E+02</wgt>
<wgt id='3235'>0.78373E+02</wgt>
<wgt id='3236'>0.78246E+02</wgt>
<wgt id='3237'>0.78608E+02</wgt>
<wgt id='3238'>0.78712E+02</wgt>
<wgt id='3239'>0.78477E+02</wgt>
<wgt id='3240'>0.78651E+02</wgt>
<wgt id='3241'>0.79479E+02</wgt>
<wgt id='3242'>0.78467E+02</wgt>
<wgt id='3243'>0.78148E+02</wgt>
<wgt id='3244'>0.78711E+02</wgt>
<wgt id='3245'>0.79154E+02</wgt>
<wgt id='3246'>0.78287E+02</wgt>
<wgt id='3247'>0.78808E+02</wgt>
<wgt id='3248'>0.78690E+02</wgt>
<wgt id='3249'>0.78473E+02</wgt>
<wgt id='3250'>0.79067E+02</wgt>
<wgt id='3251'>0.78771E+02</wgt>
<wgt id='3252'>0.79133E+02</wgt>
<wgt id='3253'>0.78848E+02</wgt>
<wgt id='3254'>0.78651E+02</wgt>
<wgt id='3255'>0.78701E+02</wgt>
<wgt id='3256'>0.78492E+02</wgt>
<wgt id='3257'>0.78696E+02</wgt>
<wgt id='3258'>0.79122E+02</wgt>
<wgt id='3259'>0.79013E+02</wgt>
<wgt id='3260'>0.78977E+02</wgt>
<wgt id='3261'>0.79325E+02</wgt>
<wgt id='3262'>0.78658E+02</wgt>
<wgt id='3263'>0.79377E+02</wgt>
<wgt id='3264'>0.79017E+02</wgt>
<wgt id='3265'>0.79005E+02</wgt>
<wgt id='3266'>0.78608E+02</wgt>
<wgt id='3267'>0.78761E+02</wgt>
<wgt id='3268'>0.79365E+02</wgt>
<wgt id='3269'>0.78976E+02</wgt>
<wgt id='3270'>0.79055E+02</wgt>
<wgt id='3271'>0.79010E+02</wgt>
<wgt id='3272'>0.79215E+02</wgt>
<wgt id='3273'>0.78870E+02</wgt>
<wgt id='3274'>0.79044E+02</wgt>
<wgt id='3275'>0.79147E+02</wgt>
<wgt id='3276'>0.78493E+02</wgt>
<wgt id='3277'>0.78314E+02</wgt>
<wgt id='3278'>0.78896E+02</wgt>
<wgt id='3279'>0.79371E+02</wgt>
<wgt id='3280'>0.78651E+02</wgt>
<wgt id='3281'>0.79206E+02</wgt>
<wgt id='3282'>0.79174E+02</wgt>
<wgt id='3283'>0.79144E+02</wgt>
<wgt id='3284'>0.78848E+02</wgt>
<wgt id='3285'>0.78345E+02</wgt>
<wgt id='3286'>0.78646E+02</wgt>
<wgt id='3287'>0.78695E+02</wgt>
<wgt id='3288'>0.79034E+02</wgt>
<wgt id='3289'>0.79758E+02</wgt>
<wgt id='3290'>0.79666E+02</wgt>
<wgt id='3291'>0.77728E+02</wgt>
<wgt id='3292'>0.77936E+02</wgt>
<wgt id='3293'>0.78733E+02</wgt>
<wgt id='3294'>0.77830E+02</wgt>
<wgt id='3295'>0.78329E+02</wgt>
<wgt id='3296'>0.79955E+02</wgt>
<wgt id='3297'>0.78682E+02</wgt>
<wgt id='3298'>0.78753E+02</wgt>
<wgt id='3299'>0.78584E+02</wgt>
<wgt id='3300'>0.79417E+02</wgt>
<wgt id='3301'>0.77514E+02</wgt>
<wgt id='3302'>0.80080E+02</wgt>
<wgt id='3400'>0.78997E+02</wgt>
<wgt id='3401'>0.79101E+02</wgt>
<wgt id='3402'>0.78524E+02</wgt>
<wgt id='3403'>0.79704E+02</wgt>
<wgt id='3404'>0.79943E+02</wgt>
<wgt id='3405'>0.79662E+02</wgt>
<wgt id='3406'>0.79109E+02</wgt>
<wgt id='3407'>0.78515E+02</wgt>
<wgt id='3408'>0.80180E+02</wgt>
<wgt id='3409'>0.79902E+02</wgt>
<wgt id='3410'>0.79227E+02</wgt>
<wgt id='3411'>0.79446E+02</wgt>
<wgt id='3412'>0.79559E+02</wgt>
<wgt id='3413'>0.78860E+02</wgt>
<wgt id='3414'>0.78821E+02</wgt>
<wgt id='3415'>0.79064E+02</wgt>
<wgt id='3416'>0.78656E+02</wgt>
<wgt id='3417'>0.79001E+02</wgt>
<wgt id='3418'>0.78622E+02</wgt>
<wgt id='3419'>0.78600E+02</wgt>
<wgt id='3420'>0.79266E+02</wgt>
<wgt id='3421'>0.79329E+02</wgt>
<wgt id='3422'>0.79304E+02</wgt>
<wgt id='3423'>0.79614E+02</wgt>
<wgt id='3424'>0.79320E+02</wgt>
<wgt id='3425'>0.78922E+02</wgt>
<wgt id='3426'>0.79111E+02</wgt>
<wgt id='3427'>0.79020E+02</wgt>
<wgt id='3428'>0.79515E+02</wgt>
<wgt id='3429'>0.78471E+02</wgt>
<wgt id='3430'>0.79219E+02</wgt>
<wgt id='3431'>0.78984E+02</wgt>
<wgt id='3432'>0.78861E+02</wgt>
<wgt id='3433'>0.78007E+02</wgt>
<wgt id='3434'>0.79181E+02</wgt>
<wgt id='3435'>0.79337E+02</wgt>
<wgt id='3436'>0.79026E+02</wgt>
<wgt id='3437'>0.78930E+02</wgt>
<wgt id='3438'>0.78385E+02</wgt>
<wgt id='3439'>0.79270E+02</wgt>
<wgt id='3440'>0.79183E+02</wgt>
<wgt id='3441'>0.79035E+02</wgt>
<wgt id='3442'>0.77932E+02</wgt>
<wgt id='3443'>0.78897E+02</wgt>
<wgt id='3444'>0.78796E+02</wgt>
<wgt id='3445'>0.78553E+02</wgt>
<wgt id='3446'>0.79660E+02</wgt>
<wgt id='3447'>0.80042E+02</wgt>
<wgt id='3448'>0.79478E+02</wgt>
<wgt id='3449'>0.79600E+02</wgt>
<wgt id='3450'>0.78964E+02</wgt>
<wgt id='3451'>0.79661E+02</wgt>
<wgt id='3452'>0.78709E+02</wgt>
<wgt id='3453'>0.78295E+02</wgt>
<wgt id='3454'>0.78342E+02</wgt>
<wgt id='3455'>0.79854E+02</wgt>
<wgt id='3456'>0.79179E+02</wgt>
<wgt id='3457'>0.79842E+02</wgt>
<wgt id='3458'>0.79106E+02</wgt>
<wgt id='3459'>0.78875E+02</wgt>
<wgt id='3460'>0.78812E+02</wgt>
<wgt id='3461'>0.78524E+02</wgt>
<wgt id='3462'>0.78799E+02</wgt>
<wgt id='3463'>0.78340E+02</wgt>
<wgt id='3464'>0.79285E+02</wgt>
<wgt id='3465'>0.78963E+02</wgt>
<wgt id='3466'>0.79337E+02</wgt>
<wgt id='3467'>0.78657E+02</wgt>
<wgt id='3468'>0.78488E+02</wgt>
<wgt id='3469'>0.78965E+02</wgt>
<wgt id='3470'>0.78880E+02</wgt>
<wgt id='3471'>0.78841E+02</wgt>
<wgt id='3472'>0.78425E+02</wgt>
<wgt id='3473'>0.79398E+02</wgt>
<wgt id='3474'>0.78864E+02</wgt>
<wgt id='3475'>0.78923E+02</wgt>
<wgt id='3476'>0.79030E+02</wgt>
<wgt id='3477'>0.78352E+02</wgt>
<wgt id='3478'>0.79522E+02</wgt>
<wgt id='3479'>0.79463E+02</wgt>
<wgt id='3480'>0.78517E+02</wgt>
<wgt id='3481'>0.79095E+02</wgt>
<wgt id='3482'>0.78855E+02</wgt>
<wgt id='3483'>0.77974E+02</wgt>
<wgt id='3484'>0.78939E+02</wgt>
<wgt id='3485'>0.78702E+02</wgt>
<wgt id='3486'>0.77894E+02</wgt>
<wgt id='3487'>0.79224E+02</wgt>
<wgt id='3488'>0.79429E+02</wgt>
<wgt id='3489'>0.78332E+02</wgt>
<wgt id='3490'>0.79495E+02</wgt>
<wgt id='3491'>0.78970E+02</wgt>
<wgt id='3492'>0.79253E+02</wgt>
<wgt id='3493'>0.78625E+02</wgt>
<wgt id='3494'>0.77452E+02</wgt>
<wgt id='3495'>0.79255E+02</wgt>
<wgt id='3496'>0.78083E+02</wgt>
<wgt id='3497'>0.78592E+02</wgt>
<wgt id='3498'>0.79181E+02</wgt>
<wgt id='3499'>0.78945E+02</wgt>
<wgt id='3500'>0.79439E+02</wgt>
</rwgt>
</event>
<event>
     13 322200  8.11039E+01  1.33258E+02 -1.00000E+00  1.17018E-01
      21    -1     0     0   504   505  0.000000000E+00  0.000000000E+00  9.152312279E+02  9.152312279E+02  0.000000000E+00  0.00000E+00  9.000E+00
      21    -1     0     0   502   503  0.000000000E+00  0.000000000E+00 -8.613516276E+01  8.613516276E+01  0.000000000E+00  0.00000E+00  9.000E+00
       6     2     1     2   502     0  3.801711403E+01 -1.615734933E+01  2.034873107E+02  2.702277008E+02  1.729438168E+02  0.00000E+00  9.000E+00
      -6     2     1     2     0   505 -1.301965367E+00 -1.119434388E+02  5.255822796E+02  5.645160331E+02  1.729410028E+02  0.00000E+00  9.000E+00
      21     1     1     2   504   503 -3.671514866E+01  1.281007881E+02  1.000264749E+02  1.666226567E+02  2.697398305E-06  0.00000E+00  9.000E+00
      24     2     3     3     0     0  4.562691583E+01 -6.027136743E+01  7.111966347E+01  1.304036925E+02  7.894721846E+01  0.00000E+00  9.000E+00
       5     1     3     3   502     0 -7.609801803E+00  4.411401810E+01  1.323676472E+02  1.398240083E+02  5.060000000E+00  0.00000E+00 -1.000E+00
     -24     2     4     4     0     0  4.807784645E+01 -1.214779273E+02  4.199782861E+02  4.474387965E+02  8.216659730E+01  0.00000E+00  9.000E+00
      -5     1     4     4     0   505 -4.937981181E+01  9.534488514E+00  1.056039935E+02  1.170772366E+02  5.060000000E+00  0.00000E+00  1.000E+00
     -13     1     6     6     0     0  6.518320385E+01 -3.016722995E+01  3.665127664E+01  8.063646246E+01  1.057000000E-01  0.00000E+00  1.000E+00
      14     1     6     6     0     0 -1.955628801E+01 -3.010413748E+01  3.446838683E+01  4.976723003E+01  0.000000000E+00  0.00000E+00 -1.000E+00
      13     1     8     8     0     0  5.920667325E+01 -9.001893036E+01  2.231262303E+02  2.477784571E+02  1.057000000E-01  0.00000E+00 -1.000E+00
     -14     1     8     8     0     0 -1.112882680E+01 -3.145899695E+01  1.968520558E+02  1.996603394E+02  0.000000000E+00  0.00000E+00  1.000E+00
#rwgt            2           1   37.725073078375523               10       23839           0
<rwgt>
<wgt id='1001'>0.81104E+02</wgt>
<wgt id='1002'>0.75478E+02</wgt>
<wgt id='1003'>0.87100E+02</wgt>
<wgt id='1004'>0.62081E+02</wgt>
<wgt id='1005'>0.57775E+02</wgt>
<wgt id='1006'>0.66670E+02</wgt>
<wgt id='1007'>0.10892E+03</wgt>
<wgt id='1008'>0.10136E+03</wgt>
<wgt id='1009'>0.11697E+03</wgt>
<wgt id='2000'>0.81104E+02</wgt>
<wgt id='2001'>0.80961E+02</wgt>
<wgt id='2002'>0.80955E+02</wgt>
<wgt id='2003'>0.81103E+02</wgt>
<wgt id='2004'>0.81417E+02</wgt>
<wgt id='2005'>0.80931E+02</wgt>
<wgt id='2006'>0.81313E+02</wgt>
<wgt id='2007'>0.81240E+02</wgt>
<wgt id='2008'>0.81210E+02</wgt>
<wgt id='2009'>0.81235E+02</wgt>
<wgt id='2010'>0.81017E+02</wgt>
<wgt id='2011'>0.81077E+02</wgt>
<wgt id='2012'>0.81379E+02</wgt>
<wgt id='2013'>0.81124E+02</wgt>
<wgt id='2014'>0.81174E+02</wgt>
<wgt id='2015'>0.81136E+02</wgt>
<wgt id='2016'>0.81169E+02</wgt>
<wgt id='2017'>0.81132E+02</wgt>
<wgt id='2018'>0.81017E+02</wgt>
<wgt id='2019'>0.80643E+02</wgt>
<wgt id='2020'>0.81006E+02</wgt>
<wgt id='2021'>0.81133E+02</wgt>
<wgt id='2022'>0.81046E+02</wgt>
<wgt id='2023'>0.81299E+02</wgt>
<wgt id='2024'>0.80626E+02</wgt>
<wgt id='2025'>0.81301E+02</wgt>
<wgt id='2026'>0.81116E+02</wgt>
<wgt id='2027'>0.81344E+02</wgt>
<wgt id='2028'>0.80989E+02</wgt>
<wgt id='2029'>0.80965E+02</wgt>
<wgt id='2030'>0.81191E+02</wgt>
<wgt id='2031'>0.80724E+02</wgt>
<wgt id='2032'>0.80960E+02</wgt>
<wgt id='2033'>0.80961E+02</wgt>
<wgt id='2034'>0.80805E+02</wgt>
<wgt id='2035'>0.81232E+02</wgt>
<wgt id='2036'>0.81287E+02</wgt>
<wgt id='2037'>0.80981E+02</wgt>
<wgt id='2038'>0.81003E+02</wgt>
<wgt id='2039'>0.81035E+02</wgt>
<wgt id='2040'>0.80976E+02</wgt>
<wgt id='2041'>0.81033E+02</wgt>
<wgt id='2042'>0.81242E+02</wgt>
<wgt id='2043'>0.81121E+02</wgt>
<wgt id='2044'>0.81127E+02</wgt>
<wgt id='2045'>0.81102E+02</wgt>
<wgt id='2046'>0.81011E+02</wgt>
<wgt id='2047'>0.81116E+02</wgt>
<wgt id='2048'>0.81050E+02</wgt>
<wgt id='2049'>0.81013E+02</wgt>
<wgt id='2050'>0.81022E+02</wgt>
<wgt id='2051'>0.81041E+02</wgt>
<wgt id='2052'>0.81234E+02</wgt>
<wgt id='2053'>0.81073E+02</wgt>
<wgt id='2054'>0.81065E+02</wgt>
<wgt id='2055'>0.81073E+02</wgt>
<wgt id='2056'>0.81041E+02</wgt>
<wgt id='2057'>0.81144E+02</wgt>
<wgt id='2058'>0.81154E+02</wgt>
<wgt id='2059'>0.81088E+02</wgt>
<wgt id='2060'>0.81096E+02</wgt>
<wgt id='2061'>0.81059E+02</wgt>
<wgt id='2062'>0.81204E+02</wgt>
<wgt id='2063'>0.81123E+02</wgt>
<wgt id='2064'>0.81115E+02</wgt>
<wgt id='2065'>0.81177E+02</wgt>
<wgt id='2066'>0.81062E+02</wgt>
<wgt id='2067'>0.81078E+02</wgt>
<wgt id='2068'>0.81165E+02</wgt>
<wgt id='2069'>0.81100E+02</wgt>
<wgt id='2070'>0.81119E+02</wgt>
<wgt id='2071'>0.81092E+02</wgt>
<wgt id='2072'>0.81078E+02</wgt>
<wgt id='2073'>0.81121E+02</wgt>
<wgt id='2074'>0.81076E+02</wgt>
<wgt id='2075'>0.81085E+02</wgt>
<wgt id='2076'>0.81096E+02</wgt>
<wgt id='2077'>0.81153E+02</wgt>
<wgt id='2078'>0.81123E+02</wgt>
<wgt id='2079'>0.81079E+02</wgt>
<wgt id='2080'>0.81117E+02</wgt>
<wgt id='2081'>0.81091E+02</wgt>
<wgt id='2082'>0.81118E+02</wgt>
<wgt id='2083'>0.81156E+02</wgt>
<wgt id='2084'>0.81097E+02</wgt>
<wgt id='2085'>0.81113E+02</wgt>
<wgt id='2086'>0.81090E+02</wgt>
<wgt id='2087'>0.81118E+02</wgt>
<wgt id='2088'>0.81097E+02</wgt>
<wgt id='2089'>0.81082E+02</wgt>
<wgt id='2090'>0.81127E+02</wgt>
<wgt id='2091'>0.81112E+02</wgt>
<wgt id='2092'>0.81142E+02</wgt>
<wgt id='2093'>0.81079E+02</wgt>
<wgt id='2094'>0.81111E+02</wgt>
<wgt id='2095'>0.81133E+02</wgt>
<wgt id='2096'>0.81085E+02</wgt>
<wgt id='2097'>0.81127E+02</wgt>
<wgt id='2098'>0.81104E+02</wgt>
<wgt id='2099'>0.81119E+02</wgt>
<wgt id='2100'>0.81104E+02</wgt>
<wgt id='2101'>0.78484E+02</wgt>
<wgt id='2102'>0.84054E+02</wgt>
<wgt id='2200'>0.81038E+02</wgt>
<wgt id='2201'>0.67193E+02</wgt>
<wgt id='2202'>0.69914E+02</wgt>
<wgt id='2203'>0.72772E+02</wgt>
<wgt id='2204'>0.75220E+02</wgt>
<wgt id='2205'>0.79618E+02</wgt>
<wgt id='2206'>0.82801E+02</wgt>
<wgt id='2207'>0.87000E+02</wgt>
<wgt id='2208'>0.90317E+02</wgt>
<wgt id='2300'>0.86658E+02</wgt>
<wgt id='2301'>0.86782E+02</wgt>
<wgt id='2302'>0.86601E+02</wgt>
<wgt id='2303'>0.86626E+02</wgt>
<wgt id='2304'>0.86930E+02</wgt>
<wgt id='2305'>0.86736E+02</wgt>
<wgt id='2306'>0.86629E+02</wgt>
<wgt id='2307'>0.86713E+02</wgt>
<wgt id='2308'>0.86549E+02</wgt>
<wgt id='2309'>0.86690E+02</wgt>
<wgt id='2310'>0.86395E+02</wgt>
<wgt id='2311'>0.86605E+02</wgt>
<wgt id='2312'>0.86823E+02</wgt>
<wgt id='2313'>0.86635E+02</wgt>
<wgt id='2314'>0.86672E+02</wgt>
<wgt id='2315'>0.86585E+02</wgt>
<wgt id='2316'>0.86755E+02</wgt>
<wgt id='2317'>0.86696E+02</wgt>
<wgt id='2318'>0.86725E+02</wgt>
<wgt id='2319'>0.86614E+02</wgt>
<wgt id='2320'>0.86776E+02</wgt>
<wgt id='2321'>0.86745E+02</wgt>
<wgt id='2322'>0.86590E+02</wgt>
<wgt id='2323'>0.86577E+02</wgt>
<wgt id='2324'>0.86694E+02</wgt>
<wgt id='2325'>0.86698E+02</wgt>
<wgt id='2326'>0.86490E+02</wgt>
<wgt id='2327'>0.86745E+02</wgt>
<wgt id='2328'>0.86683E+02</wgt>
<wgt id='2329'>0.86583E+02</wgt>
<wgt id='2330'>0.87084E+02</wgt>
<wgt id='2331'>0.86850E+02</wgt>
<wgt id='2332'>0.86399E+02</wgt>
<wgt id='2333'>0.86420E+02</wgt>
<wgt id='2334'>0.86608E+02</wgt>
<wgt id='2335'>0.86239E+02</wgt>
<wgt id='2336'>0.86726E+02</wgt>
<wgt id='2337'>0.86965E+02</wgt>
<wgt id='2338'>0.86681E+02</wgt>
<wgt id='2339'>0.86790E+02</wgt>
<wgt id='2340'>0.86965E+02</wgt>
<wgt id='2341'>0.86778E+02</wgt>
<wgt id='2342'>0.86367E+02</wgt>
<wgt id='2343'>0.86376E+02</wgt>
<wgt id='2344'>0.86770E+02</wgt>
<wgt id='2345'>0.86744E+02</wgt>
<wgt id='2346'>0.86950E+02</wgt>
<wgt id='2347'>0.86599E+02</wgt>
<wgt id='2348'>0.86815E+02</wgt>
<wgt id='2349'>0.86628E+02</wgt>
<wgt id='2350'>0.86473E+02</wgt>
<wgt id='2351'>0.86871E+02</wgt>
<wgt id='2352'>0.86525E+02</wgt>
<wgt id='2353'>0.86605E+02</wgt>
<wgt id='2354'>0.86682E+02</wgt>
<wgt id='2355'>0.86567E+02</wgt>
<wgt id='2356'>0.86628E+02</wgt>
<wgt id='2357'>0.86595E+02</wgt>
<wgt id='2358'>0.86615E+02</wgt>
<wgt id='2359'>0.86585E+02</wgt>
<wgt id='2360'>0.86734E+02</wgt>
<wgt id='2361'>0.86593E+02</wgt>
<wgt id='2362'>0.86696E+02</wgt>
<wgt id='2363'>0.86635E+02</wgt>
<wgt id='2364'>0.86623E+02</wgt>
<wgt id='2365'>0.86591E+02</wgt>
<wgt id='2366'>0.86680E+02</wgt>
<wgt id='2367'>0.86548E+02</wgt>
<wgt id='2368'>0.86686E+02</wgt>
<wgt id='2369'>0.86612E+02</wgt>
<wgt id='2370'>0.86659E+02</wgt>
<wgt id='2371'>0.86627E+02</wgt>
<wgt id='2372'>0.86651E+02</wgt>
<wgt id='2373'>0.86617E+02</wgt>
<wgt id='2374'>0.86760E+02</wgt>
<wgt id='2375'>0.86671E+02</wgt>
<wgt id='2376'>0.86667E+02</wgt>
<wgt id='2377'>0.86683E+02</wgt>
<wgt id='2378'>0.86696E+02</wgt>
<wgt id='2379'>0.86599E+02</wgt>
<wgt id='2380'>0.86631E+02</wgt>
<wgt id='2381'>0.86640E+02</wgt>
<wgt id='2382'>0.86640E+02</wgt>
<wgt id='2383'>0.86614E+02</wgt>
<wgt id='2384'>0.86608E+02</wgt>
<wgt id='2385'>0.86708E+02</wgt>
<wgt id='2386'>0.86590E+02</wgt>
<wgt id='2387'>0.86610E+02</wgt>
<wgt id='2388'>0.86628E+02</wgt>
<wgt id='2389'>0.86647E+02</wgt>
<wgt id='2390'>0.86684E+02</wgt>
<wgt id='2391'>0.86668E+02</wgt>
<wgt id='2392'>0.86652E+02</wgt>
<wgt id='2393'>0.86673E+02</wgt>
<wgt id='2394'>0.86702E+02</wgt>
<wgt id='2395'>0.86655E+02</wgt>
<wgt id='2396'>0.86645E+02</wgt>
<wgt id='2397'>0.86641E+02</wgt>
<wgt id='2398'>0.86634E+02</wgt>
<wgt id='2399'>0.86668E+02</wgt>
<wgt id='2400'>0.86687E+02</wgt>
<wgt id='2401'>0.83762E+02</wgt>
<wgt id='2402'>0.89927E+02</wgt>
<wgt id='2500'>0.82705E+02</wgt>
<wgt id='2501'>0.88231E+02</wgt>
<wgt id='2600'>0.79133E+02</wgt>
<wgt id='2601'>0.78941E+02</wgt>
<wgt id='2602'>0.79153E+02</wgt>
<wgt id='2603'>0.79125E+02</wgt>
<wgt id='2604'>0.79191E+02</wgt>
<wgt id='2605'>0.79026E+02</wgt>
<wgt id='2606'>0.79139E+02</wgt>
<wgt id='2607'>0.79222E+02</wgt>
<wgt id='2608'>0.79216E+02</wgt>
<wgt id='2609'>0.79064E+02</wgt>
<wgt id='2610'>0.79073E+02</wgt>
<wgt id='2611'>0.79110E+02</wgt>
<wgt id='2612'>0.79197E+02</wgt>
<wgt id='2613'>0.79151E+02</wgt>
<wgt id='2614'>0.79067E+02</wgt>
<wgt id='2615'>0.78983E+02</wgt>
<wgt id='2616'>0.79189E+02</wgt>
<wgt id='2617'>0.78953E+02</wgt>
<wgt id='2618'>0.79137E+02</wgt>
<wgt id='2619'>0.79203E+02</wgt>
<wgt id='2620'>0.78990E+02</wgt>
<wgt id='2621'>0.79252E+02</wgt>
<wgt id='2622'>0.79451E+02</wgt>
<wgt id='2623'>0.79105E+02</wgt>
<wgt id='2624'>0.79081E+02</wgt>
<wgt id='2625'>0.79236E+02</wgt>
<wgt id='2626'>0.79175E+02</wgt>
<wgt id='2627'>0.79238E+02</wgt>
<wgt id='2628'>0.79095E+02</wgt>
<wgt id='2629'>0.79216E+02</wgt>
<wgt id='2630'>0.79322E+02</wgt>
<wgt id='2631'>0.79010E+02</wgt>
<wgt id='2632'>0.79003E+02</wgt>
<wgt id='2633'>0.79058E+02</wgt>
<wgt id='2634'>0.79004E+02</wgt>
<wgt id='2635'>0.79016E+02</wgt>
<wgt id='2636'>0.79172E+02</wgt>
<wgt id='2637'>0.79135E+02</wgt>
<wgt id='2638'>0.79106E+02</wgt>
<wgt id='2639'>0.79147E+02</wgt>
<wgt id='2640'>0.79119E+02</wgt>
<wgt id='2641'>0.79103E+02</wgt>
<wgt id='2642'>0.79139E+02</wgt>
<wgt id='2643'>0.79076E+02</wgt>
<wgt id='2644'>0.79128E+02</wgt>
<wgt id='2645'>0.79106E+02</wgt>
<wgt id='2646'>0.79177E+02</wgt>
<wgt id='2647'>0.79114E+02</wgt>
<wgt id='2648'>0.79117E+02</wgt>
<wgt id='2649'>0.79138E+02</wgt>
<wgt id='2650'>0.79147E+02</wgt>
<wgt id='2651'>0.77356E+02</wgt>
<wgt id='2652'>0.80627E+02</wgt>
<wgt id='2700'>0.75775E+02</wgt>
<wgt id='2701'>0.77356E+02</wgt>
<wgt id='2702'>0.78298E+02</wgt>
<wgt id='2703'>0.79932E+02</wgt>
<wgt id='2704'>0.80627E+02</wgt>
<wgt id='2705'>0.82425E+02</wgt>
<wgt id='2800'>0.81578E+02</wgt>
<wgt id='4000'>0.83002E+02</wgt>
<wgt id='4001'>0.83286E+02</wgt>
<wgt id='4002'>0.83002E+02</wgt>
<wgt id='4003'>0.82413E+02</wgt>
<wgt id='4004'>0.83789E+02</wgt>
<wgt id='4005'>0.83230E+02</wgt>
<wgt id='4006'>0.82954E+02</wgt>
<wgt id='4007'>0.83487E+02</wgt>
<wgt id='4008'>0.82571E+02</wgt>
<wgt id='4009'>0.82689E+02</wgt>
<wgt id='4010'>0.82999E+02</wgt>
<wgt id='4011'>0.83550E+02</wgt>
<wgt id='4012'>0.82352E+02</wgt>
<wgt id='4013'>0.83317E+02</wgt>
<wgt id='4014'>0.82842E+02</wgt>
<wgt id='4015'>0.83156E+02</wgt>
<wgt id='4016'>0.83865E+02</wgt>
<wgt id='4017'>0.83052E+02</wgt>
<wgt id='4018'>0.82984E+02</wgt>
<wgt id='4019'>0.83063E+02</wgt>
<wgt id='4020'>0.83033E+02</wgt>
<wgt id='4021'>0.83256E+02</wgt>
<wgt id='4022'>0.82557E+02</wgt>
<wgt id='4023'>0.83383E+02</wgt>
<wgt id='4024'>0.83302E+02</wgt>
<wgt id='4025'>0.82970E+02</wgt>
<wgt id='4026'>0.83219E+02</wgt>
<wgt id='4027'>0.83701E+02</wgt>
<wgt id='4028'>0.82459E+02</wgt>
<wgt id='4029'>0.83808E+02</wgt>
<wgt id='4030'>0.82155E+02</wgt>
<wgt id='4031'>0.82858E+02</wgt>
<wgt id='4032'>0.84359E+02</wgt>
<wgt id='4033'>0.83664E+02</wgt>
<wgt id='4034'>0.82372E+02</wgt>
<wgt id='4035'>0.83649E+02</wgt>
<wgt id='4036'>0.82522E+02</wgt>
<wgt id='4037'>0.85524E+02</wgt>
<wgt id='4038'>0.81112E+02</wgt>
<wgt id='4039'>0.84718E+02</wgt>
<wgt id='4040'>0.81417E+02</wgt>
<wgt id='4041'>0.83387E+02</wgt>
<wgt id='4042'>0.82547E+02</wgt>
<wgt id='4043'>0.82682E+02</wgt>
<wgt id='4044'>0.82435E+02</wgt>
<wgt id='4045'>0.83327E+02</wgt>
<wgt id='4046'>0.82887E+02</wgt>
<wgt id='4047'>0.83122E+02</wgt>
<wgt id='4048'>0.83244E+02</wgt>
<wgt id='4049'>0.83042E+02</wgt>
<wgt id='4050'>0.83038E+02</wgt>
<wgt id='4051'>0.83276E+02</wgt>
<wgt id='4052'>0.82953E+02</wgt>
<wgt id='4053'>0.82999E+02</wgt>
<wgt id='4054'>0.82415E+02</wgt>
<wgt id='4055'>0.83476E+02</wgt>
<wgt id='4056'>0.82542E+02</wgt>
<wgt id='4057'>0.82240E+02</wgt>
<wgt id='4058'>0.83510E+02</wgt>
<wgt id='4100'>0.83400E+02</wgt>
<wgt id='4101'>0.83172E+02</wgt>
<wgt id='4102'>0.82875E+02</wgt>
<wgt id='4103'>0.82769E+02</wgt>
<wgt id='4200'>0.80745E+02</wgt>
<wgt id='4201'>0.80723E+02</wgt>
<wgt id='4202'>0.80991E+02</wgt>
<wgt id='4203'>0.80281E+02</wgt>
<wgt id='4204'>0.80997E+02</wgt>
<wgt id='4205'>0.80698E+02</wgt>
<wgt id='4206'>0.81014E+02</wgt>
<wgt id='4207'>0.81218E+02</wgt>
<wgt id='4208'>0.80501E+02</wgt>
<wgt id='4209'>0.80594E+02</wgt>
<wgt id='4210'>0.80913E+02</wgt>
<wgt id='4211'>0.81395E+02</wgt>
<wgt id='4212'>0.80245E+02</wgt>
<wgt id='4213'>0.80897E+02</wgt>
<wgt id='4214'>0.80500E+02</wgt>
<wgt id='4215'>0.80757E+02</wgt>
<wgt id='4216'>0.80851E+02</wgt>
<wgt id='4217'>0.80655E+02</wgt>
<wgt id='4218'>0.80764E+02</wgt>
<wgt id='4219'>0.80278E+02</wgt>
<wgt id='4220'>0.81251E+02</wgt>
<wgt id='4221'>0.80376E+02</wgt>
<wgt id='4222'>0.81401E+02</wgt>
<wgt id='4223'>0.80048E+02</wgt>
<wgt id='4224'>0.80432E+02</wgt>
<wgt id='4225'>0.79860E+02</wgt>
<wgt id='4226'>0.81924E+02</wgt>
<wgt id='4227'>0.81499E+02</wgt>
<wgt id='4228'>0.80115E+02</wgt>
<wgt id='4229'>0.79439E+02</wgt>
<wgt id='4230'>0.81826E+02</wgt>
<wgt id='4231'>0.81077E+02</wgt>
<wgt id='4232'>0.80196E+02</wgt>
<wgt id='4233'>0.80949E+02</wgt>
<wgt id='4234'>0.80016E+02</wgt>
<wgt id='4235'>0.81570E+02</wgt>
<wgt id='4236'>0.79951E+02</wgt>
<wgt id='4237'>0.81868E+02</wgt>
<wgt id='4238'>0.79038E+02</wgt>
<wgt id='4239'>0.80527E+02</wgt>
<wgt id='4240'>0.80504E+02</wgt>
<wgt id='4241'>0.80802E+02</wgt>
<wgt id='4242'>0.80667E+02</wgt>
<wgt id='4243'>0.80991E+02</wgt>
<wgt id='4244'>0.80706E+02</wgt>
<wgt id='4245'>0.80621E+02</wgt>
<wgt id='4246'>0.80528E+02</wgt>
<wgt id='4247'>0.80143E+02</wgt>
<wgt id='4248'>0.81037E+02</wgt>
<wgt id='4249'>0.81889E+02</wgt>
<wgt id='4250'>0.79417E+02</wgt>
<wgt id='4251'>0.81499E+02</wgt>
<wgt id='4252'>0.80217E+02</wgt>
<wgt id='4253'>0.81126E+02</wgt>
<wgt id='4254'>0.80111E+02</wgt>
<wgt id='4255'>0.81981E+02</wgt>
<wgt id='4256'>0.80131E+02</wgt>
<wgt id='4257'>0.79302E+02</wgt>
<wgt id='4258'>0.81162E+02</wgt>
<wgt id='4300'>0.82079E+02</wgt>
<wgt id='4301'>0.82421E+02</wgt>
<wgt id='5000'>0.82651E+02</wgt>
<wgt id='5001'>0.82692E+02</wgt>
<wgt id='5002'>0.82599E+02</wgt>
<wgt id='5003'>0.82671E+02</wgt>
<wgt id='5004'>0.82634E+02</wgt>
<wgt id='5005'>0.82656E+02</wgt>
<wgt id='5006'>0.82644E+02</wgt>
<wgt id='5007'>0.82734E+02</wgt>
<wgt id='5008'>0.82584E+02</wgt>
<wgt id='5009'>0.82754E+02</wgt>
<wgt id='5010'>0.82546E+02</wgt>
<wgt id='5011'>0.82895E+02</wgt>
<wgt id='5012'>0.82417E+02</wgt>
<wgt id='5013'>0.82788E+02</wgt>
<wgt id='5014'>0.82554E+02</wgt>
<wgt id='5015'>0.82243E+02</wgt>
<wgt id='5016'>0.82243E+02</wgt>
<wgt id='5017'>0.83015E+02</wgt>
<wgt id='5018'>0.82406E+02</wgt>
<wgt id='5019'>0.82925E+02</wgt>
<wgt id='5020'>0.82276E+02</wgt>
<wgt id='5021'>0.82745E+02</wgt>
<wgt id='5022'>0.82503E+02</wgt>
<wgt id='5023'>0.82598E+02</wgt>
<wgt id='5024'>0.82779E+02</wgt>
<wgt id='5025'>0.82447E+02</wgt>
<wgt id='5026'>0.82878E+02</wgt>
<wgt id='5027'>0.82709E+02</wgt>
<wgt id='5028'>0.82497E+02</wgt>
<wgt id='5029'>0.83653E+02</wgt>
<wgt id='5030'>0.82088E+02</wgt>
<wgt id='5031'>0.82085E+02</wgt>
<wgt id='5032'>0.84387E+02</wgt>
<wgt id='5033'>0.82590E+02</wgt>
<wgt id='5034'>0.82717E+02</wgt>
<wgt id='5035'>0.82664E+02</wgt>
<wgt id='5036'>0.82635E+02</wgt>
<wgt id='5037'>0.82398E+02</wgt>
<wgt id='5038'>0.82794E+02</wgt>
<wgt id='5039'>0.82840E+02</wgt>
<wgt id='5040'>0.82183E+02</wgt>
<wgt id='5041'>0.82469E+02</wgt>
<wgt id='5042'>0.82848E+02</wgt>
<wgt id='5043'>0.82836E+02</wgt>
<wgt id='5044'>0.82520E+02</wgt>
<wgt id='5045'>0.82846E+02</wgt>
<wgt id='5046'>0.82321E+02</wgt>
<wgt id='5047'>0.82742E+02</wgt>
<wgt id='5048'>0.82254E+02</wgt>
<wgt id='5049'>0.82558E+02</wgt>
<wgt id='5050'>0.82871E+02</wgt>
<wgt id='5051'>0.82883E+02</wgt>
<wgt id='5052'>0.82489E+02</wgt>
<wgt id='5053'>0.82806E+02</wgt>
<wgt id='5054'>0.82823E+02</wgt>
<wgt id='5055'>0.82693E+02</wgt>
<wgt id='5056'>0.82703E+02</wgt>
<wgt id='5057'>0.82301E+02</wgt>
<wgt id='5058'>0.82898E+02</wgt>
<wgt id='5059'>0.82516E+02</wgt>
<wgt id='5060'>0.82731E+02</wgt>
<wgt id='5061'>0.82878E+02</wgt>
<wgt id='5062'>0.82881E+02</wgt>
<wgt id='5063'>0.82927E+02</wgt>
<wgt id='5064'>0.82730E+02</wgt>
<wgt id='5100'>0.82651E+02</wgt>
<wgt id='5101'>0.82647E+02</wgt>
<wgt id='6000'>0.81948E+02</wgt>
<wgt id='6001'>0.81529E+02</wgt>
<wgt id='6002'>0.81363E+02</wgt>
<wgt id='6003'>0.81695E+02</wgt>
<wgt id='6004'>0.82267E+02</wgt>
<wgt id='6005'>0.81446E+02</wgt>
<wgt id='6006'>0.81942E+02</wgt>
<wgt id='6007'>0.81404E+02</wgt>
<wgt id='6008'>0.82135E+02</wgt>
<wgt id='6009'>0.81789E+02</wgt>
<wgt id='6010'>0.81829E+02</wgt>
<wgt id='6011'>0.81888E+02</wgt>
<wgt id='6012'>0.82143E+02</wgt>
<wgt id='6013'>0.81516E+02</wgt>
<wgt id='6014'>0.81602E+02</wgt>
<wgt id='6015'>0.81152E+02</wgt>
<wgt id='6016'>0.82351E+02</wgt>
<wgt id='6017'>0.81573E+02</wgt>
<wgt id='6018'>0.81354E+02</wgt>
<wgt id='6019'>0.82033E+02</wgt>
<wgt id='6020'>0.82130E+02</wgt>
<wgt id='6021'>0.81833E+02</wgt>
<wgt id='6022'>0.82140E+02</wgt>
<wgt id='6023'>0.81908E+02</wgt>
<wgt id='6024'>0.82049E+02</wgt>
<wgt id='6025'>0.82454E+02</wgt>
<wgt id='6026'>0.81808E+02</wgt>
<wgt id='6027'>0.81983E+02</wgt>
<wgt id='6028'>0.81524E+02</wgt>
<wgt id='6029'>0.81718E+02</wgt>
<wgt id='6030'>0.81492E+02</wgt>
<wgt id='6031'>0.81681E+02</wgt>
<wgt id='6032'>0.81912E+02</wgt>
<wgt id='6033'>0.81857E+02</wgt>
<wgt id='6034'>0.82331E+02</wgt>
<wgt id='6035'>0.82017E+02</wgt>
<wgt id='6036'>0.82784E+02</wgt>
<wgt id='6037'>0.81945E+02</wgt>
<wgt id='6038'>0.81882E+02</wgt>
<wgt id='6039'>0.82206E+02</wgt>
<wgt id='6040'>0.81947E+02</wgt>
<wgt id='6041'>0.80431E+02</wgt>
<wgt id='6042'>0.83589E+02</wgt>
<wgt id='7000'>0.80155E+02</wgt>
<wgt id='7001'>0.79863E+02</wgt>
<wgt id='7002'>0.80030E+02</wgt>
<wgt id='7003'>0.79924E+02</wgt>
<wgt id='7004'>0.79970E+02</wgt>
<wgt id='7005'>0.80011E+02</wgt>
<wgt id='7006'>0.79882E+02</wgt>
<wgt id='7007'>0.80413E+02</wgt>
<wgt id='7008'>0.79494E+02</wgt>
<wgt id='7009'>0.79570E+02</wgt>
<wgt id='7010'>0.80336E+02</wgt>
<wgt id='7011'>0.80211E+02</wgt>
<wgt id='7012'>0.79689E+02</wgt>
<wgt id='7013'>0.79885E+02</wgt>
<wgt id='7014'>0.80002E+02</wgt>
<wgt id='7015'>0.80053E+02</wgt>
<wgt id='7016'>0.79653E+02</wgt>
<wgt id='7017'>0.79852E+02</wgt>
<wgt id='7018'>0.80049E+02</wgt>
<wgt id='7019'>0.80166E+02</wgt>
<wgt id='7020'>0.79742E+02</wgt>
<wgt id='7021'>0.80895E+02</wgt>
<wgt id='7022'>0.79036E+02</wgt>
<wgt id='7023'>0.79024E+02</wgt>
<wgt id='7024'>0.80883E+02</wgt>
<wgt id='7025'>0.78516E+02</wgt>
<wgt id='7026'>0.81333E+02</wgt>
<wgt id='7027'>0.79316E+02</wgt>
<wgt id='7028'>0.80642E+02</wgt>
<wgt id='8000'>0.81219E+02</wgt>
<wgt id='8001'>0.81207E+02</wgt>
<wgt id='8002'>0.81243E+02</wgt>
<wgt id='8003'>0.81219E+02</wgt>
<wgt id='8004'>0.81217E+02</wgt>
<wgt id='8005'>0.81074E+02</wgt>
<wgt id='8006'>0.81323E+02</wgt>
<wgt id='8007'>0.81405E+02</wgt>
<wgt id='8008'>0.81392E+02</wgt>
<wgt id='8009'>0.81549E+02</wgt>
<wgt id='8010'>0.81120E+02</wgt>
<wgt id='8011'>0.81252E+02</wgt>
<wgt id='8012'>0.80917E+02</wgt>
<wgt id='8013'>0.81031E+02</wgt>
<wgt id='8014'>0.81438E+02</wgt>
<wgt id='8015'>0.81167E+02</wgt>
<wgt id='8016'>0.81333E+02</wgt>
<wgt id='8017'>0.81299E+02</wgt>
<wgt id='8018'>0.81516E+02</wgt>
<wgt id='8019'>0.81099E+02</wgt>
<wgt id='8020'>0.81458E+02</wgt>
<wgt id='8021'>0.81073E+02</wgt>
<wgt id='8022'>0.81647E+02</wgt>
<wgt id='8023'>0.80954E+02</wgt>
<wgt id='8024'>0.80681E+02</wgt>
<wgt id='8025'>0.80851E+02</wgt>
<wgt id='8026'>0.81237E+02</wgt>
<wgt id='8027'>0.81367E+02</wgt>
<wgt id='8028'>0.81244E+02</wgt>
<wgt id='8029'>0.82445E+02</wgt>
<wgt id='3000'>0.81104E+02</wgt>
<wgt id='3001'>0.81618E+02</wgt>
<wgt id='3002'>0.80549E+02</wgt>
<wgt id='3003'>0.82497E+02</wgt>
<wgt id='3004'>0.82134E+02</wgt>
<wgt id='3005'>0.82302E+02</wgt>
<wgt id='3006'>0.81796E+02</wgt>
<wgt id='3007'>0.79103E+02</wgt>
<wgt id='3008'>0.79114E+02</wgt>
<wgt id='3009'>0.80789E+02</wgt>
<wgt id='3010'>0.84580E+02</wgt>
<wgt id='3011'>0.81773E+02</wgt>
<wgt id='3012'>0.79843E+02</wgt>
<wgt id='3013'>0.79802E+02</wgt>
<wgt id='3014'>0.80600E+02</wgt>
<wgt id='3015'>0.79338E+02</wgt>
<wgt id='3016'>0.81319E+02</wgt>
<wgt id='3017'>0.81955E+02</wgt>
<wgt id='3018'>0.79562E+02</wgt>
<wgt id='3019'>0.80182E+02</wgt>
<wgt id='3020'>0.80712E+02</wgt>
<wgt id='3021'>0.78831E+02</wgt>
<wgt id='3022'>0.79459E+02</wgt>
<wgt id='3023'>0.79838E+02</wgt>
<wgt id='3024'>0.81018E+02</wgt>
<wgt id='3025'>0.79647E+02</wgt>
<wgt id='3026'>0.79972E+02</wgt>
<wgt id='3027'>0.82421E+02</wgt>
<wgt id='3028'>0.79028E+02</wgt>
<wgt id='3029'>0.81632E+02</wgt>
<wgt id='3030'>0.80982E+02</wgt>
<wgt id='3031'>0.81623E+02</wgt>
<wgt id='3032'>0.79262E+02</wgt>
<wgt id='3033'>0.80149E+02</wgt>
<wgt id='3034'>0.82211E+02</wgt>
<wgt id='3035'>0.82363E+02</wgt>
<wgt id='3036'>0.80936E+02</wgt>
<wgt id='3037'>0.79837E+02</wgt>
<wgt id='3038'>0.81475E+02</wgt>
<wgt id='3039'>0.80223E+02</wgt>
<wgt id='3040'>0.81075E+02</wgt>
<wgt id='3041'>0.81818E+02</wgt>
<wgt id='3042'>0.81430E+02</wgt>
<wgt id='3043'>0.82486E+02</wgt>
<wgt id='3044'>0.82408E+02</wgt>
<wgt id='3045'>0.81668E+02</wgt>
<wgt id='3046'>0.81216E+02</wgt>
<wgt id='3047'>0.81149E+02</wgt>
<wgt id='3048'>0.81811E+02</wgt>
<wgt id='3049'>0.80683E+02</wgt>
<wgt id='3050'>0.82218E+02</wgt>
<wgt id='3051'>0.80377E+02</wgt>
<wgt id='3052'>0.79802E+02</wgt>
<wgt id='3053'>0.82520E+02</wgt>
<wgt id='3054'>0.79180E+02</wgt>
<wgt id='3055'>0.81153E+02</wgt>
<wgt id='3056'>0.80834E+02</wgt>
<wgt id='3057'>0.79552E+02</wgt>
<wgt id='3058'>0.82288E+02</wgt>
<wgt id='3059'>0.80724E+02</wgt>
<wgt id='3060'>0.80182E+02</wgt>
<wgt id='3061'>0.80162E+02</wgt>
<wgt id='3062'>0.81493E+02</wgt>
<wgt id='3063'>0.80935E+02</wgt>
<wgt id='3064'>0.82592E+02</wgt>
<wgt id='3065'>0.79270E+02</wgt>
<wgt id='3066'>0.82740E+02</wgt>
<wgt id='3067'>0.80534E+02</wgt>
<wgt id='3068'>0.80497E+02</wgt>
<wgt id='3069'>0.80573E+02</wgt>
<wgt id='3070'>0.81812E+02</wgt>
<wgt id='3071'>0.81483E+02</wgt>
<wgt id='3072'>0.81721E+02</wgt>
<wgt id='3073'>0.81161E+02</wgt>
<wgt id='3074'>0.80677E+02</wgt>
<wgt id='3075'>0.81705E+02</wgt>
<wgt id='3076'>0.83483E+02</wgt>
<wgt id='3077'>0.82091E+02</wgt>
<wgt id='3078'>0.79849E+02</wgt>
<wgt id='3079'>0.81254E+02</wgt>
<wgt id='3080'>0.83764E+02</wgt>
<wgt id='3081'>0.81839E+02</wgt>
<wgt id='3082'>0.81319E+02</wgt>
<wgt id='3083'>0.81665E+02</wgt>
<wgt id='3084'>0.80315E+02</wgt>
<wgt id='3085'>0.80603E+02</wgt>
<wgt id='3086'>0.82533E+02</wgt>
<wgt id='3087'>0.80283E+02</wgt>
<wgt id='3088'>0.81736E+02</wgt>
<wgt id='3089'>0.83953E+02</wgt>
<wgt id='3090'>0.81042E+02</wgt>
<wgt id='3091'>0.80798E+02</wgt>
<wgt id='3092'>0.81899E+02</wgt>
<wgt id='3093'>0.81493E+02</wgt>
<wgt id='3094'>0.81888E+02</wgt>
<wgt id='3095'>0.78982E+02</wgt>
<wgt id='3096'>0.80725E+02</wgt>
<wgt id='3097'>0.84577E+02</wgt>
<wgt id='3098'>0.81379E+02</wgt>
<wgt id='3099'>0.79639E+02</wgt>
<wgt id='3100'>0.80360E+02</wgt>
<wgt id='3200'>0.79231E+02</wgt>
<wgt id='3201'>0.78996E+02</wgt>
<wgt id='3202'>0.77399E+02</wgt>
<wgt id='3203'>0.79651E+02</wgt>
<wgt id='3204'>0.78837E+02</wgt>
<wgt id='3205'>0.79612E+02</wgt>
<wgt id='3206'>0.80337E+02</wgt>
<wgt id='3207'>0.79999E+02</wgt>
<wgt id='3208'>0.79303E+02</wgt>
<wgt id='3209'>0.79210E+02</wgt>
<wgt id='3210'>0.79390E+02</wgt>
<wgt id='3211'>0.79570E+02</wgt>
<wgt id='3212'>0.79333E+02</wgt>
<wgt id='3213'>0.79691E+02</wgt>
<wgt id='3214'>0.78914E+02</wgt>
<wgt id='3215'>0.79195E+02</wgt>
<wgt id='3216'>0.79826E+02</wgt>
<wgt id='3217'>0.79550E+02</wgt>
<wgt id='3218'>0.80280E+02</wgt>
<wgt id='3219'>0.79009E+02</wgt>
<wgt id='3220'>0.78322E+02</wgt>
<wgt id='3221'>0.79144E+02</wgt>
<wgt id='3222'>0.79974E+02</wgt>
<wgt id='3223'>0.80048E+02</wgt>
<wgt id='3224'>0.78934E+02</wgt>
<wgt id='3225'>0.79996E+02</wgt>
<wgt id='3226'>0.78468E+02</wgt>
<wgt id='3227'>0.78385E+02</wgt>
<wgt id='3228'>0.78525E+02</wgt>
<wgt id='3229'>0.80172E+02</wgt>
<wgt id='3230'>0.79560E+02</wgt>
<wgt id='3231'>0.79466E+02</wgt>
<wgt id='3232'>0.79562E+02</wgt>
<wgt id='3233'>0.79474E+02</wgt>
<wgt id='3234'>0.78155E+02</wgt>
<wgt id='3235'>0.79296E+02</wgt>
<wgt id='3236'>0.79651E+02</wgt>
<wgt id='3237'>0.79387E+02</wgt>
<wgt id='3238'>0.78637E+02</wgt>
<wgt id='3239'>0.78439E+02</wgt>
<wgt id='3240'>0.78082E+02</wgt>
<wgt id='3241'>0.80110E+02</wgt>
<wgt id='3242'>0.79411E+02</wgt>
<wgt id='3243'>0.79448E+02</wgt>
<wgt id='3244'>0.79500E+02</wgt>
<wgt id='3245'>0.79886E+02</wgt>
<wgt id='3246'>0.77739E+02</wgt>
<wgt id='3247'>0.78360E+02</wgt>
<wgt id='3248'>0.79022E+02</wgt>
<wgt id='3249'>0.78165E+02</wgt>
<wgt id='3250'>0.78990E+02</wgt>
<wgt id='3251'>0.78881E+02</wgt>
<wgt id='3252'>0.80144E+02</wgt>
<wgt id='3253'>0.79426E+02</wgt>
<wgt id='3254'>0.78959E+02</wgt>
<wgt id='3255'>0.78311E+02</wgt>
<wgt id='3256'>0.79326E+02</wgt>
<wgt id='3257'>0.79065E+02</wgt>
<wgt id='3258'>0.78604E+02</wgt>
<wgt id='3259'>0.78310E+02</wgt>
<wgt id='3260'>0.79189E+02</wgt>
<wgt id='3261'>0.78637E+02</wgt>
<wgt id='3262'>0.80227E+02</wgt>
<wgt id='3263'>0.79641E+02</wgt>
<wgt id='3264'>0.79439E+02</wgt>
<wgt id='3265'>0.79849E+02</wgt>
<wgt id='3266'>0.79387E+02</wgt>
<wgt id='3267'>0.79326E+02</wgt>
<wgt id='3268'>0.78462E+02</wgt>
<wgt id='3269'>0.79029E+02</wgt>
<wgt id='3270'>0.80602E+02</wgt>
<wgt id='3271'>0.79238E+02</wgt>
<wgt id='3272'>0.79423E+02</wgt>
<wgt id='3273'>0.79369E+02</wgt>
<wgt id='3274'>0.78740E+02</wgt>
<wgt id='3275'>0.79993E+02</wgt>
<wgt id='3276'>0.78524E+02</wgt>
<wgt id='3277'>0.78988E+02</wgt>
<wgt id='3278'>0.80077E+02</wgt>
<wgt id='3279'>0.79482E+02</wgt>
<wgt id='3280'>0.79113E+02</wgt>
<wgt id='3281'>0.80018E+02</wgt>
<wgt id='3282'>0.79479E+02</wgt>
<wgt id='3283'>0.79504E+02</wgt>
<wgt id='3284'>0.78669E+02</wgt>
<wgt id='3285'>0.79309E+02</wgt>
<wgt id='3286'>0.78205E+02</wgt>
<wgt id='3287'>0.80765E+02</wgt>
<wgt id='3288'>0.78539E+02</wgt>
<wgt id='3289'>0.80209E+02</wgt>
<wgt id='3290'>0.78443E+02</wgt>
<wgt id='3291'>0.78390E+02</wgt>
<wgt id='3292'>0.78770E+02</wgt>
<wgt id='3293'>0.79131E+02</wgt>
<wgt id='3294'>0.79266E+02</wgt>
<wgt id='3295'>0.78784E+02</wgt>
<wgt id='3296'>0.80023E+02</wgt>
<wgt id='3297'>0.79295E+02</wgt>
<wgt id='3298'>0.78257E+02</wgt>
<wgt id='3299'>0.79588E+02</wgt>
<wgt id='3300'>0.80210E+02</wgt>
<wgt id='3301'>0.77356E+02</wgt>
<wgt id='3302'>0.80627E+02</wgt>
<wgt id='3400'>0.78656E+02</wgt>
<wgt id='3401'>0.79092E+02</wgt>
<wgt id='3402'>0.77235E+02</wgt>
<wgt id='3403'>0.79304E+02</wgt>
<wgt id='3404'>0.79845E+02</wgt>
<wgt id='3405'>0.79104E+02</wgt>
<wgt id='3406'>0.79849E+02</wgt>
<wgt id='3407'>0.78620E+02</wgt>
<wgt id='3408'>0.79376E+02</wgt>
<wgt id='3409'>0.79110E+02</wgt>
<wgt id='3410'>0.79334E+02</wgt>
<wgt id='3411'>0.79931E+02</wgt>
<wgt id='3412'>0.79449E+02</wgt>
<wgt id='3413'>0.78386E+02</wgt>
<wgt id='3414'>0.78117E+02</wgt>
<wgt id='3415'>0.78656E+02</wgt>
<wgt id='3416'>0.78318E+02</wgt>
<wgt id='3417'>0.79128E+02</wgt>
<wgt id='3418'>0.78058E+02</wgt>
<wgt id='3419'>0.78116E+02</wgt>
<wgt id='3420'>0.78342E+02</wgt>
<wgt id='3421'>0.78162E+02</wgt>
<wgt id='3422'>0.78260E+02</wgt>
<wgt id='3423'>0.79857E+02</wgt>
<wgt id='3424'>0.79093E+02</wgt>
<wgt id='3425'>0.78052E+02</wgt>
<wgt id='3426'>0.78213E+02</wgt>
<wgt id='3427'>0.77696E+02</wgt>
<wgt id='3428'>0.78793E+02</wgt>
<wgt id='3429'>0.77834E+02</wgt>
<wgt id='3430'>0.78421E+02</wgt>
<wgt id='3431'>0.79056E+02</wgt>
<wgt id='3432'>0.79763E+02</wgt>
<wgt id='3433'>0.78299E+02</wgt>
<wgt id='3434'>0.79810E+02</wgt>
<wgt id='3435'>0.79683E+02</wgt>
<wgt id='3436'>0.78586E+02</wgt>
<wgt id='3437'>0.79711E+02</wgt>
<wgt id='3438'>0.78048E+02</wgt>
<wgt id='3439'>0.77095E+02</wgt>
<wgt id='3440'>0.79072E+02</wgt>
<wgt id='3441'>0.78913E+02</wgt>
<wgt id='3442'>0.78016E+02</wgt>
<wgt id='3443'>0.79191E+02</wgt>
<wgt id='3444'>0.77780E+02</wgt>
<wgt id='3445'>0.77950E+02</wgt>
<wgt id='3446'>0.78920E+02</wgt>
<wgt id='3447'>0.78807E+02</wgt>
<wgt id='3448'>0.79897E+02</wgt>
<wgt id='3449'>0.79033E+02</wgt>
<wgt id='3450'>0.78148E+02</wgt>
<wgt id='3451'>0.79425E+02</wgt>
<wgt id='3452'>0.78378E+02</wgt>
<wgt id='3453'>0.77279E+02</wgt>
<wgt id='3454'>0.78606E+02</wgt>
<wgt id='3455'>0.79468E+02</wgt>
<wgt id='3456'>0.78675E+02</wgt>
<wgt id='3457'>0.78885E+02</wgt>
<wgt id='3458'>0.78140E+02</wgt>
<wgt id='3459'>0.78693E+02</wgt>
<wgt id='3460'>0.78401E+02</wgt>
<wgt id='3461'>0.77732E+02</wgt>
<wgt id='3462'>0.78979E+02</wgt>
<wgt id='3463'>0.77609E+02</wgt>
<wgt id='3464'>0.78712E+02</wgt>
<wgt id='3465'>0.79288E+02</wgt>
<wgt id='3466'>0.79240E+02</wgt>
<wgt id='3467'>0.78188E+02</wgt>
<wgt id='3468'>0.78114E+02</wgt>
<wgt id='3469'>0.77622E+02</wgt>
<wgt id='3470'>0.78028E+02</wgt>
<wgt id='3471'>0.78200E+02</wgt>
<wgt id='3472'>0.77161E+02</wgt>
<wgt id='3473'>0.80298E+02</wgt>
<wgt id='3474'>0.77913E+02</wgt>
<wgt id='3475'>0.79143E+02</wgt>
<wgt id='3476'>0.78589E+02</wgt>
<wgt id='3477'>0.77499E+02</wgt>
<wgt id='3478'>0.79734E+02</wgt>
<wgt id='3479'>0.78460E+02</wgt>
<wgt id='3480'>0.78990E+02</wgt>
<wgt id='3481'>0.79567E+02</wgt>
<wgt id='3482'>0.78867E+02</wgt>
<wgt id='3483'>0.78514E+02</wgt>
<wgt id='3484'>0.77999E+02</wgt>
<wgt id='3485'>0.78039E+02</wgt>
<wgt id='3486'>0.76651E+02</wgt>
<wgt id='3487'>0.77858E+02</wgt>
<wgt id='3488'>0.78527E+02</wgt>
<wgt id='3489'>0.77577E+02</wgt>
<wgt id='3490'>0.79516E+02</wgt>
<wgt id='3491'>0.80084E+02</wgt>
<wgt id='3492'>0.78364E+02</wgt>
<wgt id='3493'>0.79974E+02</wgt>
<wgt id='3494'>0.76959E+02</wgt>
<wgt id='3495'>0.79535E+02</wgt>
<wgt id='3496'>0.77679E+02</wgt>
<wgt id='3497'>0.78433E+02</wgt>
<wgt id='3498'>0.79815E+02</wgt>
<wgt id='3499'>0.78361E+02</wgt>
<wgt id='3500'>0.80199E+02</wgt>
</rwgt>
</event>
<event>
     13 322200  8.11039E+01  1.20744E+02 -1.00000E+00  1.18760E-01
      21    -1     0     0   512   513  0.000000000E+00  0.000000000E+00  1.589865983E+02  1.589865983E+02  0.000000000E+00  0.00000E+00  9.000E+00
       2    -1     0     0   502     0  0.000000000E+00  0.000000000E+00 -1.189580725E+03  1.189580725E+03  0.000000000E+00  0.00000E+00  9.000E+00
       6     2     1     2   502     0  7.284734662E+00 -2.647351749E+01  1.315093001E+01  1.757504608E+02  1.730935095E+02  0.00000E+00  9.000E+00
      -6     2     1     2     0   513 -5.856729710E+01  1.357861865E+02 -1.552418156E+02  2.761467925E+02  1.740373896E+02  0.00000E+00  9.000E+00
       2     1     1     2   512     0  5.128256243E+01 -1.093126690E+02 -8.885032416E+02  8.966700704E+02  2.100000000E-01  0.00000E+00  9.000E+00
      24     2     3     3     0     0  3.264041210E+01  1.291571807E+01 -4.615672865E+01  1.000046739E+02  8.147563400E+01  0.00000E+00  9.000E+00
       5     1     3     3   502     0 -2.535567744E+01 -3.938923556E+01  5.930765866E+01  7.574578689E+01  5.060000000E+00  0.00000E+00 -1.000E+00
     -24     2     4     4     0     0 -6.338429581E+01  1.637144772E+02 -1.098238481E+02  2.223733022E+02  8.104695515E+01  0.00000E+00  9.000E+00
      -5     1     4     4     0   513  4.816998709E+00 -2.792829065E+01 -4.541796742E+01  5.377349031E+01  5.060000000E+00  0.00000E+00  1.000E+00
     -11     1     6     6     0     0  1.039016795E+01  2.267417909E+01  1.842173282E+01  3.100700288E+01  5.100000000E-04  0.00000E+00  1.000E+00
      12     1     6     6     0     0  2.225024416E+01 -9.758461018E+00 -6.457846147E+01  6.899767106E+01  0.000000000E+00  0.00000E+00 -1.000E+00
      15     1     8     8     0     0 -2.768166093E+01  1.515788933E+02 -7.645494596E+01  1.720202073E+02  1.777000000E+00  0.00000E+00 -1.000E+00
     -16     1     8     8     0     0 -3.570263488E+01  1.213558388E+01 -3.336890218E+01  5.035309490E+01  0.000000000E+00  0.00000E+00  1.000E+00
#rwgt            1           1   649.77976408359211               10       24132           0
<rwgt>
<wgt id='1001'>0.81104E+02</wgt>
<wgt id='1002'>0.71541E+02</wgt>
<wgt id='1003'>0.90986E+02</wgt>
<wgt id='1004'>0.72859E+02</wgt>
<wgt id='1005'>0.65056E+02</wgt>
<wgt id='1006'>0.80879E+02</wgt>
<wgt id='1007'>0.90019E+02</wgt>
<wgt id='1008'>0.78029E+02</wgt>
<wgt id='1009'>0.10249E+03</wgt>
<wgt id='2000'>0.81104E+02</wgt>
<wgt id='2001'>0.81246E+02</wgt>
<wgt id='2002'>0.80880E+02</wgt>
<wgt id='2003'>0.80979E+02</wgt>
<wgt id='2004'>0.81287E+02</wgt>
<wgt id='2005'>0.81246E+02</wgt>
<wgt id='2006'>0.81319E+02</wgt>
<wgt id='2007'>0.81396E+02</wgt>
<wgt id='2008'>0.81623E+02</wgt>
<wgt id='2009'>0.80975E+02</wgt>
<wgt id='2010'>0.81067E+02</wgt>
<wgt id='2011'>0.80602E+02</wgt>
<wgt id='2012'>0.81361E+02</wgt>
<wgt id='2013'>0.81203E+02</wgt>
<wgt id='2014'>0.81343E+02</wgt>
<wgt id='2015'>0.81265E+02</wgt>
<wgt id='2016'>0.81091E+02</wgt>
<wgt id='2017'>0.81005E+02</wgt>
<wgt id='2018'>0.81125E+02</wgt>
<wgt id='2019'>0.81562E+02</wgt>
<wgt id='2020'>0.80836E+02</wgt>
<wgt id='2021'>0.81148E+02</wgt>
<wgt id='2022'>0.80929E+02</wgt>
<wgt id='2023'>0.81112E+02</wgt>
<wgt id='2024'>0.81091E+02</wgt>
<wgt id='2025'>0.81060E+02</wgt>
<wgt id='2026'>0.81024E+02</wgt>
<wgt id='2027'>0.80860E+02</wgt>
<wgt id='2028'>0.81240E+02</wgt>
<wgt id='2029'>0.80841E+02</wgt>
<wgt id='2030'>0.81063E+02</wgt>
<wgt id='2031'>0.80866E+02</wgt>
<wgt id='2032'>0.81127E+02</wgt>
<wgt id='2033'>0.81020E+02</wgt>
<wgt id='2034'>0.80994E+02</wgt>
<wgt id='2035'>0.81113E+02</wgt>
<wgt id='2036'>0.81253E+02</wgt>
<wgt id='2037'>0.81098E+02</wgt>
<wgt id='2038'>0.81084E+02</wgt>
<wgt id='2039'>0.81108E+02</wgt>
<wgt id='2040'>0.81066E+02</wgt>
<wgt id='2041'>0.81106E+02</wgt>
<wgt id='2042'>0.81129E+02</wgt>
<wgt id='2043'>0.81051E+02</wgt>
<wgt id='2044'>0.81154E+02</wgt>
<wgt id='2045'>0.81131E+02</wgt>
<wgt id='2046'>0.81123E+02</wgt>
<wgt id='2047'>0.81086E+02</wgt>
<wgt id='2048'>0.81069E+02</wgt>
<wgt id='2049'>0.81047E+02</wgt>
<wgt id='2050'>0.81070E+02</wgt>
<wgt id='2051'>0.81089E+02</wgt>
<wgt id='2052'>0.81166E+02</wgt>
<wgt id='2053'>0.81090E+02</wgt>
<wgt id='2054'>0.81104E+02</wgt>
<wgt id='2055'>0.81120E+02</wgt>
<wgt id='2056'>0.81081E+02</wgt>
<wgt id='2057'>0.81133E+02</wgt>
<wgt id='2058'>0.81115E+02</wgt>
<wgt id='2059'>0.81121E+02</wgt>
<wgt id='2060'>0.81107E+02</wgt>
<wgt id='2061'>0.81091E+02</wgt>
<wgt id='2062'>0.81165E+02</wgt>
<wgt id='2063'>0.81122E+02</wgt>
<wgt id='2064'>0.81126E+02</wgt>
<wgt id='2065'>0.81165E+02</wgt>
<wgt id='2066'>0.81106E+02</wgt>
<wgt id='2067'>0.81124E+02</wgt>
<wgt id='2068'>0.81113E+02</wgt>
<wgt id='2069'>0.81116E+02</wgt>
<wgt id='2070'>0.81110E+02</wgt>
<wgt id='2071'>0.81107E+02</wgt>
<wgt id='2072'>0.81105E+02</wgt>
<wgt id='2073'>0.81122E+02</wgt>
<wgt id='2074'>0.81090E+02</wgt>
<wgt id='2075'>0.81089E+02</wgt>
<wgt id='2076'>0.81100E+02</wgt>
<wgt id='2077'>0.81145E+02</wgt>
<wgt id='2078'>0.81113E+02</wgt>
<wgt id='2079'>0.81086E+02</wgt>
<wgt id='2080'>0.81104E+02</wgt>
<wgt id='2081'>0.81092E+02</wgt>
<wgt id='2082'>0.81116E+02</wgt>
<wgt id='2083'>0.81127E+02</wgt>
<wgt id='2084'>0.81114E+02</wgt>
<wgt id='2085'>0.81103E+02</wgt>
<wgt id='2086'>0.81092E+02</wgt>
<wgt id='2087'>0.81116E+02</wgt>
<wgt id='2088'>0.81101E+02</wgt>
<wgt id='2089'>0.81098E+02</wgt>
<wgt id='2090'>0.81118E+02</wgt>
<wgt id='2091'>0.81106E+02</wgt>
<wgt id='2092'>0.81114E+02</wgt>
<wgt id='2093'>0.81092E+02</wgt>
<wgt id='2094'>0.81104E+02</wgt>
<wgt id='2095'>0.81113E+02</wgt>
<wgt id='2096'>0.81096E+02</wgt>
<wgt id='2097'>0.81112E+02</wgt>
<wgt id='2098'>0.81103E+02</wgt>
<wgt id='2099'>0.81114E+02</wgt>
<wgt id='2100'>0.81104E+02</wgt>
<wgt id='2101'>0.79023E+02</wgt>
<wgt id='2102'>0.83021E+02</wgt>
<wgt id='2200'>0.81141E+02</wgt>
<wgt id='2201'>0.71939E+02</wgt>
<wgt id='2202'>0.73621E+02</wgt>
<wgt id='2203'>0.75740E+02</wgt>
<wgt id='2204'>0.77702E+02</wgt>
<wgt id='2205'>0.80353E+02</wgt>
<wgt id='2206'>0.82277E+02</wgt>
<wgt id='2207'>0.84531E+02</wgt>
<wgt id='2208'>0.86400E+02</wgt>
<wgt id='2300'>0.84418E+02</wgt>
<wgt id='2301'>0.84565E+02</wgt>
<wgt id='2302'>0.84324E+02</wgt>
<wgt id='2303'>0.84568E+02</wgt>
<wgt id='2304'>0.84601E+02</wgt>
<wgt id='2305'>0.84721E+02</wgt>
<wgt id='2306'>0.84432E+02</wgt>
<wgt id='2307'>0.84718E+02</wgt>
<wgt id='2308'>0.84301E+02</wgt>
<wgt id='2309'>0.84675E+02</wgt>
<wgt id='2310'>0.84204E+02</wgt>
<wgt id='2311'>0.84324E+02</wgt>
<wgt id='2312'>0.84726E+02</wgt>
<wgt id='2313'>0.84250E+02</wgt>
<wgt id='2314'>0.84688E+02</wgt>
<wgt id='2315'>0.84359E+02</wgt>
<wgt id='2316'>0.84487E+02</wgt>
<wgt id='2317'>0.84690E+02</wgt>
<wgt id='2318'>0.84670E+02</wgt>
<wgt id='2319'>0.84057E+02</wgt>
<wgt id='2320'>0.84126E+02</wgt>
<wgt id='2321'>0.84026E+02</wgt>
<wgt id='2322'>0.84391E+02</wgt>
<wgt id='2323'>0.84195E+02</wgt>
<wgt id='2324'>0.84130E+02</wgt>
<wgt id='2325'>0.84430E+02</wgt>
<wgt id='2326'>0.84599E+02</wgt>
<wgt id='2327'>0.84449E+02</wgt>
<wgt id='2328'>0.84106E+02</wgt>
<wgt id='2329'>0.84322E+02</wgt>
<wgt id='2330'>0.84594E+02</wgt>
<wgt id='2331'>0.84497E+02</wgt>
<wgt id='2332'>0.84501E+02</wgt>
<wgt id='2333'>0.84524E+02</wgt>
<wgt id='2334'>0.84467E+02</wgt>
<wgt id='2335'>0.84532E+02</wgt>
<wgt id='2336'>0.84454E+02</wgt>
<wgt id='2337'>0.84420E+02</wgt>
<wgt id='2338'>0.84420E+02</wgt>
<wgt id='2339'>0.84417E+02</wgt>
<wgt id='2340'>0.84417E+02</wgt>
<wgt id='2341'>0.84437E+02</wgt>
<wgt id='2342'>0.84330E+02</wgt>
<wgt id='2343'>0.84333E+02</wgt>
<wgt id='2344'>0.84453E+02</wgt>
<wgt id='2345'>0.84478E+02</wgt>
<wgt id='2346'>0.84464E+02</wgt>
<wgt id='2347'>0.84401E+02</wgt>
<wgt id='2348'>0.84460E+02</wgt>
<wgt id='2349'>0.84398E+02</wgt>
<wgt id='2350'>0.84405E+02</wgt>
<wgt id='2351'>0.84510E+02</wgt>
<wgt id='2352'>0.84394E+02</wgt>
<wgt id='2353'>0.84397E+02</wgt>
<wgt id='2354'>0.84406E+02</wgt>
<wgt id='2355'>0.84404E+02</wgt>
<wgt id='2356'>0.84433E+02</wgt>
<wgt id='2357'>0.84392E+02</wgt>
<wgt id='2358'>0.84387E+02</wgt>
<wgt id='2359'>0.84418E+02</wgt>
<wgt id='2360'>0.84433E+02</wgt>
<wgt id='2361'>0.84438E+02</wgt>
<wgt id='2362'>0.84429E+02</wgt>
<wgt id='2363'>0.84441E+02</wgt>
<wgt id='2364'>0.84408E+02</wgt>
<wgt id='2365'>0.84423E+02</wgt>
<wgt id='2366'>0.84432E+02</wgt>
<wgt id='2367'>0.84388E+02</wgt>
<wgt id='2368'>0.84419E+02</wgt>
<wgt id='2369'>0.84393E+02</wgt>
<wgt id='2370'>0.84409E+02</wgt>
<wgt id='2371'>0.84416E+02</wgt>
<wgt id='2372'>0.84431E+02</wgt>
<wgt id='2373'>0.84405E+02</wgt>
<wgt id='2374'>0.84449E+02</wgt>
<wgt id='2375'>0.84424E+02</wgt>
<wgt id='2376'>0.84423E+02</wgt>
<wgt id='2377'>0.84422E+02</wgt>
<wgt id='2378'>0.84435E+02</wgt>
<wgt id='2379'>0.84409E+02</wgt>
<wgt id='2380'>0.84403E+02</wgt>
<wgt id='2381'>0.84412E+02</wgt>
<wgt id='2382'>0.84404E+02</wgt>
<wgt id='2383'>0.84424E+02</wgt>
<wgt id='2384'>0.84411E+02</wgt>
<wgt id='2385'>0.84428E+02</wgt>
<wgt id='2386'>0.84421E+02</wgt>
<wgt id='2387'>0.84412E+02</wgt>
<wgt id='2388'>0.84410E+02</wgt>
<wgt id='2389'>0.84422E+02</wgt>
<wgt id='2390'>0.84423E+02</wgt>
<wgt id='2391'>0.84416E+02</wgt>
<wgt id='2392'>0.84414E+02</wgt>
<wgt id='2393'>0.84419E+02</wgt>
<wgt id='2394'>0.84432E+02</wgt>
<wgt id='2395'>0.84419E+02</wgt>
<wgt id='2396'>0.84405E+02</wgt>
<wgt id='2397'>0.84403E+02</wgt>
<wgt id='2398'>0.84410E+02</wgt>
<wgt id='2399'>0.84427E+02</wgt>
<wgt id='2400'>0.84424E+02</wgt>
<wgt id='2401'>0.82410E+02</wgt>
<wgt id='2402'>0.86545E+02</wgt>
<wgt id='2500'>0.80785E+02</wgt>
<wgt id='2501'>0.84926E+02</wgt>
<wgt id='2600'>0.78747E+02</wgt>
<wgt id='2601'>0.78729E+02</wgt>
<wgt id='2602'>0.78714E+02</wgt>
<wgt id='2603'>0.78706E+02</wgt>
<wgt id='2604'>0.78881E+02</wgt>
<wgt id='2605'>0.78621E+02</wgt>
<wgt id='2606'>0.78488E+02</wgt>
<wgt id='2607'>0.78950E+02</wgt>
<wgt id='2608'>0.78613E+02</wgt>
<wgt id='2609'>0.78706E+02</wgt>
<wgt id='2610'>0.78706E+02</wgt>
<wgt id='2611'>0.78676E+02</wgt>
<wgt id='2612'>0.79106E+02</wgt>
<wgt id='2613'>0.78722E+02</wgt>
<wgt id='2614'>0.78749E+02</wgt>
<wgt id='2615'>0.78665E+02</wgt>
<wgt id='2616'>0.78723E+02</wgt>
<wgt id='2617'>0.78666E+02</wgt>
<wgt id='2618'>0.78591E+02</wgt>
<wgt id='2619'>0.78778E+02</wgt>
<wgt id='2620'>0.78788E+02</wgt>
<wgt id='2621'>0.78719E+02</wgt>
<wgt id='2622'>0.78749E+02</wgt>
<wgt id='2623'>0.78744E+02</wgt>
<wgt id='2624'>0.78754E+02</wgt>
<wgt id='2625'>0.78718E+02</wgt>
<wgt id='2626'>0.78745E+02</wgt>
<wgt id='2627'>0.78723E+02</wgt>
<wgt id='2628'>0.78755E+02</wgt>
<wgt id='2629'>0.78747E+02</wgt>
<wgt id='2630'>0.78733E+02</wgt>
<wgt id='2631'>0.78759E+02</wgt>
<wgt id='2632'>0.78739E+02</wgt>
<wgt id='2633'>0.78751E+02</wgt>
<wgt id='2634'>0.78760E+02</wgt>
<wgt id='2635'>0.78736E+02</wgt>
<wgt id='2636'>0.78747E+02</wgt>
<wgt id='2637'>0.78743E+02</wgt>
<wgt id='2638'>0.78739E+02</wgt>
<wgt id='2639'>0.78748E+02</wgt>
<wgt id='2640'>0.78750E+02</wgt>
<wgt id='2641'>0.78740E+02</wgt>
<wgt id='2642'>0.78744E+02</wgt>
<wgt id='2643'>0.78747E+02</wgt>
<wgt id='2644'>0.78748E+02</wgt>
<wgt id='2645'>0.78743E+02</wgt>
<wgt id='2646'>0.78742E+02</wgt>
<wgt id='2647'>0.78748E+02</wgt>
<wgt id='2648'>0.78747E+02</wgt>
<wgt id='2649'>0.78749E+02</wgt>
<wgt id='2650'>0.78747E+02</wgt>
<wgt id='2651'>0.77450E+02</wgt>
<wgt id='2652'>0.79959E+02</wgt>
<wgt id='2700'>0.76187E+02</wgt>
<wgt id='2701'>0.77450E+02</wgt>
<wgt id='2702'>0.78139E+02</wgt>
<wgt id='2703'>0.79271E+02</wgt>
<wgt id='2704'>0.79959E+02</wgt>
<wgt id='2705'>0.81099E+02</wgt>
<wgt id='2800'>0.79890E+02</wgt>
<wgt id='4000'>0.79175E+02</wgt>
<wgt id='4001'>0.79518E+02</wgt>
<wgt id='4002'>0.78996E+02</wgt>
<wgt id='4003'>0.79912E+02</wgt>
<wgt id='4004'>0.78240E+02</wgt>
<wgt id='4005'>0.78662E+02</wgt>
<wgt id='4006'>0.79552E+02</wgt>
<wgt id='4007'>0.80198E+02</wgt>
<wgt id='4008'>0.78138E+02</wgt>
<wgt id='4009'>0.79772E+02</wgt>
<wgt id='4010'>0.78744E+02</wgt>
<wgt id='4011'>0.79401E+02</wgt>
<wgt id='4012'>0.78942E+02</wgt>
<wgt id='4013'>0.79699E+02</wgt>
<wgt id='4014'>0.78675E+02</wgt>
<wgt id='4015'>0.78954E+02</wgt>
<wgt id='4016'>0.78992E+02</wgt>
<wgt id='4017'>0.79062E+02</wgt>
<wgt id='4018'>0.79326E+02</wgt>
<wgt id='4019'>0.79757E+02</wgt>
<wgt id='4020'>0.78222E+02</wgt>
<wgt id='4021'>0.79176E+02</wgt>
<wgt id='4022'>0.79139E+02</wgt>
<wgt id='4023'>0.78631E+02</wgt>
<wgt id='4024'>0.79569E+02</wgt>
<wgt id='4025'>0.79456E+02</wgt>
<wgt id='4026'>0.78419E+02</wgt>
<wgt id='4027'>0.78871E+02</wgt>
<wgt id='4028'>0.79414E+02</wgt>
<wgt id='4029'>0.77972E+02</wgt>
<wgt id='4030'>0.79690E+02</wgt>
<wgt id='4031'>0.79220E+02</wgt>
<wgt id='4032'>0.78348E+02</wgt>
<wgt id='4033'>0.78788E+02</wgt>
<wgt id='4034'>0.79389E+02</wgt>
<wgt id='4035'>0.79952E+02</wgt>
<wgt id='4036'>0.78516E+02</wgt>
<wgt id='4037'>0.79996E+02</wgt>
<wgt id='4038'>0.78383E+02</wgt>
<wgt id='4039'>0.80209E+02</wgt>
<wgt id='4040'>0.78030E+02</wgt>
<wgt id='4041'>0.78947E+02</wgt>
<wgt id='4042'>0.79314E+02</wgt>
<wgt id='4043'>0.78072E+02</wgt>
<wgt id='4044'>0.79791E+02</wgt>
<wgt id='4045'>0.81157E+02</wgt>
<wgt id='4046'>0.78220E+02</wgt>
<wgt id='4047'>0.77906E+02</wgt>
<wgt id='4048'>0.79596E+02</wgt>
<wgt id='4049'>0.78906E+02</wgt>
<wgt id='4050'>0.79322E+02</wgt>
<wgt id='4051'>0.80438E+02</wgt>
<wgt id='4052'>0.77913E+02</wgt>
<wgt id='4053'>0.80161E+02</wgt>
<wgt id='4054'>0.77997E+02</wgt>
<wgt id='4055'>0.79503E+02</wgt>
<wgt id='4056'>0.78698E+02</wgt>
<wgt id='4057'>0.78412E+02</wgt>
<wgt id='4058'>0.79699E+02</wgt>
<wgt id='4100'>0.80114E+02</wgt>
<wgt id='4101'>0.79674E+02</wgt>
<wgt id='4102'>0.78632E+02</wgt>
<wgt id='4103'>0.78058E+02</wgt>
<wgt id='4200'>0.76013E+02</wgt>
<wgt id='4201'>0.76157E+02</wgt>
<wgt id='4202'>0.76046E+02</wgt>
<wgt id='4203'>0.75449E+02</wgt>
<wgt id='4204'>0.76500E+02</wgt>
<wgt id='4205'>0.76001E+02</wgt>
<wgt id='4206'>0.76059E+02</wgt>
<wgt id='4207'>0.75691E+02</wgt>
<wgt id='4208'>0.76249E+02</wgt>
<wgt id='4209'>0.76156E+02</wgt>
<wgt id='4210'>0.76003E+02</wgt>
<wgt id='4211'>0.76970E+02</wgt>
<wgt id='4212'>0.75244E+02</wgt>
<wgt id='4213'>0.76112E+02</wgt>
<wgt id='4214'>0.75848E+02</wgt>
<wgt id='4215'>0.76196E+02</wgt>
<wgt id='4216'>0.75462E+02</wgt>
<wgt id='4217'>0.75626E+02</wgt>
<wgt id='4218'>0.76310E+02</wgt>
<wgt id='4219'>0.74960E+02</wgt>
<wgt id='4220'>0.76917E+02</wgt>
<wgt id='4221'>0.75440E+02</wgt>
<wgt id='4222'>0.76592E+02</wgt>
<wgt id='4223'>0.76829E+02</wgt>
<wgt id='4224'>0.75282E+02</wgt>
<wgt id='4225'>0.74457E+02</wgt>
<wgt id='4226'>0.77327E+02</wgt>
<wgt id='4227'>0.76360E+02</wgt>
<wgt id='4228'>0.75706E+02</wgt>
<wgt id='4229'>0.75749E+02</wgt>
<wgt id='4230'>0.76132E+02</wgt>
<wgt id='4231'>0.75885E+02</wgt>
<wgt id='4232'>0.76137E+02</wgt>
<wgt id='4233'>0.76279E+02</wgt>
<wgt id='4234'>0.75691E+02</wgt>
<wgt id='4235'>0.76296E+02</wgt>
<wgt id='4236'>0.75762E+02</wgt>
<wgt id='4237'>0.75884E+02</wgt>
<wgt id='4238'>0.76059E+02</wgt>
<wgt id='4239'>0.77071E+02</wgt>
<wgt id='4240'>0.74365E+02</wgt>
<wgt id='4241'>0.75474E+02</wgt>
<wgt id='4242'>0.76598E+02</wgt>
<wgt id='4243'>0.75991E+02</wgt>
<wgt id='4244'>0.76124E+02</wgt>
<wgt id='4245'>0.75029E+02</wgt>
<wgt id='4246'>0.77034E+02</wgt>
<wgt id='4247'>0.75766E+02</wgt>
<wgt id='4248'>0.76154E+02</wgt>
<wgt id='4249'>0.77025E+02</wgt>
<wgt id='4250'>0.74786E+02</wgt>
<wgt id='4251'>0.74763E+02</wgt>
<wgt id='4252'>0.76718E+02</wgt>
<wgt id='4253'>0.75496E+02</wgt>
<wgt id='4254'>0.76418E+02</wgt>
<wgt id='4255'>0.75938E+02</wgt>
<wgt id='4256'>0.75904E+02</wgt>
<wgt id='4257'>0.74590E+02</wgt>
<wgt id='4258'>0.76427E+02</wgt>
<wgt id='4300'>0.78385E+02</wgt>
<wgt id='4301'>0.77319E+02</wgt>
<wgt id='5000'>0.78799E+02</wgt>
<wgt id='5001'>0.78827E+02</wgt>
<wgt id='5002'>0.78765E+02</wgt>
<wgt id='5003'>0.78819E+02</wgt>
<wgt id='5004'>0.78782E+02</wgt>
<wgt id='5005'>0.78792E+02</wgt>
<wgt id='5006'>0.78812E+02</wgt>
<wgt id='5007'>0.78844E+02</wgt>
<wgt id='5008'>0.78763E+02</wgt>
<wgt id='5009'>0.78900E+02</wgt>
<wgt id='5010'>0.78696E+02</wgt>
<wgt id='5011'>0.78946E+02</wgt>
<wgt id='5012'>0.78659E+02</wgt>
<wgt id='5013'>0.78904E+02</wgt>
<wgt id='5014'>0.78725E+02</wgt>
<wgt id='5015'>0.78421E+02</wgt>
<wgt id='5016'>0.78421E+02</wgt>
<wgt id='5017'>0.79258E+02</wgt>
<wgt id='5018'>0.78490E+02</wgt>
<wgt id='5019'>0.79119E+02</wgt>
<wgt id='5020'>0.78362E+02</wgt>
<wgt id='5021'>0.78898E+02</wgt>
<wgt id='5022'>0.78645E+02</wgt>
<wgt id='5023'>0.78692E+02</wgt>
<wgt id='5024'>0.79057E+02</wgt>
<wgt id='5025'>0.78459E+02</wgt>
<wgt id='5026'>0.79183E+02</wgt>
<wgt id='5027'>0.78826E+02</wgt>
<wgt id='5028'>0.78728E+02</wgt>
<wgt id='5029'>0.79300E+02</wgt>
<wgt id='5030'>0.78514E+02</wgt>
<wgt id='5031'>0.78576E+02</wgt>
<wgt id='5032'>0.79468E+02</wgt>
<wgt id='5033'>0.78821E+02</wgt>
<wgt id='5034'>0.78777E+02</wgt>
<wgt id='5035'>0.78799E+02</wgt>
<wgt id='5036'>0.78802E+02</wgt>
<wgt id='5037'>0.78745E+02</wgt>
<wgt id='5038'>0.78831E+02</wgt>
<wgt id='5039'>0.79010E+02</wgt>
<wgt id='5040'>0.78283E+02</wgt>
<wgt id='5041'>0.79186E+02</wgt>
<wgt id='5042'>0.78415E+02</wgt>
<wgt id='5043'>0.78865E+02</wgt>
<wgt id='5044'>0.78789E+02</wgt>
<wgt id='5045'>0.78639E+02</wgt>
<wgt id='5046'>0.78956E+02</wgt>
<wgt id='5047'>0.78824E+02</wgt>
<wgt id='5048'>0.78693E+02</wgt>
<wgt id='5049'>0.78775E+02</wgt>
<wgt id='5050'>0.78841E+02</wgt>
<wgt id='5051'>0.78908E+02</wgt>
<wgt id='5052'>0.78687E+02</wgt>
<wgt id='5053'>0.78601E+02</wgt>
<wgt id='5054'>0.78913E+02</wgt>
<wgt id='5055'>0.78872E+02</wgt>
<wgt id='5056'>0.78808E+02</wgt>
<wgt id='5057'>0.78582E+02</wgt>
<wgt id='5058'>0.78951E+02</wgt>
<wgt id='5059'>0.78798E+02</wgt>
<wgt id='5060'>0.78812E+02</wgt>
<wgt id='5061'>0.78990E+02</wgt>
<wgt id='5062'>0.78789E+02</wgt>
<wgt id='5063'>0.79042E+02</wgt>
<wgt id='5064'>0.78739E+02</wgt>
<wgt id='5100'>0.78799E+02</wgt>
<wgt id='5101'>0.78838E+02</wgt>
<wgt id='6000'>0.79129E+02</wgt>
<wgt id='6001'>0.79328E+02</wgt>
<wgt id='6002'>0.79338E+02</wgt>
<wgt id='6003'>0.79130E+02</wgt>
<wgt id='6004'>0.79021E+02</wgt>
<wgt id='6005'>0.79071E+02</wgt>
<wgt id='6006'>0.79398E+02</wgt>
<wgt id='6007'>0.79058E+02</wgt>
<wgt id='6008'>0.78095E+02</wgt>
<wgt id='6009'>0.79430E+02</wgt>
<wgt id='6010'>0.78111E+02</wgt>
<wgt id='6011'>0.79095E+02</wgt>
<wgt id='6012'>0.79368E+02</wgt>
<wgt id='6013'>0.78939E+02</wgt>
<wgt id='6014'>0.79099E+02</wgt>
<wgt id='6015'>0.78649E+02</wgt>
<wgt id='6016'>0.79148E+02</wgt>
<wgt id='6017'>0.79185E+02</wgt>
<wgt id='6018'>0.79065E+02</wgt>
<wgt id='6019'>0.79169E+02</wgt>
<wgt id='6020'>0.79304E+02</wgt>
<wgt id='6021'>0.79217E+02</wgt>
<wgt id='6022'>0.79072E+02</wgt>
<wgt id='6023'>0.79172E+02</wgt>
<wgt id='6024'>0.79193E+02</wgt>
<wgt id='6025'>0.79330E+02</wgt>
<wgt id='6026'>0.79189E+02</wgt>
<wgt id='6027'>0.79167E+02</wgt>
<wgt id='6028'>0.79023E+02</wgt>
<wgt id='6029'>0.79021E+02</wgt>
<wgt id='6030'>0.79881E+02</wgt>
<wgt id='6031'>0.78990E+02</wgt>
<wgt id='6032'>0.79149E+02</wgt>
<wgt id='6033'>0.79020E+02</wgt>
<wgt id='6034'>0.79313E+02</wgt>
<wgt id='6035'>0.79167E+02</wgt>
<wgt id='6036'>0.79481E+02</wgt>
<wgt id='6037'>0.79148E+02</wgt>
<wgt id='6038'>0.79189E+02</wgt>
<wgt id='6039'>0.79236E+02</wgt>
<wgt id='6040'>0.79132E+02</wgt>
<wgt id='6041'>0.78237E+02</wgt>
<wgt id='6042'>0.79855E+02</wgt>
<wgt id='7000'>0.78709E+02</wgt>
<wgt id='7001'>0.78323E+02</wgt>
<wgt id='7002'>0.78483E+02</wgt>
<wgt id='7003'>0.78397E+02</wgt>
<wgt id='7004'>0.78409E+02</wgt>
<wgt id='7005'>0.78531E+02</wgt>
<wgt id='7006'>0.78275E+02</wgt>
<wgt id='7007'>0.78879E+02</wgt>
<wgt id='7008'>0.77940E+02</wgt>
<wgt id='7009'>0.78157E+02</wgt>
<wgt id='7010'>0.78659E+02</wgt>
<wgt id='7011'>0.78662E+02</wgt>
<wgt id='7012'>0.78146E+02</wgt>
<wgt id='7013'>0.78242E+02</wgt>
<wgt id='7014'>0.78557E+02</wgt>
<wgt id='7015'>0.78260E+02</wgt>
<wgt id='7016'>0.78332E+02</wgt>
<wgt id='7017'>0.78428E+02</wgt>
<wgt id='7018'>0.78377E+02</wgt>
<wgt id='7019'>0.78211E+02</wgt>
<wgt id='7020'>0.78600E+02</wgt>
<wgt id='7021'>0.78224E+02</wgt>
<wgt id='7022'>0.78544E+02</wgt>
<wgt id='7023'>0.78262E+02</wgt>
<wgt id='7024'>0.78554E+02</wgt>
<wgt id='7025'>0.77735E+02</wgt>
<wgt id='7026'>0.78973E+02</wgt>
<wgt id='7027'>0.78176E+02</wgt>
<wgt id='7028'>0.78686E+02</wgt>
<wgt id='8000'>0.79269E+02</wgt>
<wgt id='8001'>0.79258E+02</wgt>
<wgt id='8002'>0.79293E+02</wgt>
<wgt id='8003'>0.79273E+02</wgt>
<wgt id='8004'>0.79267E+02</wgt>
<wgt id='8005'>0.79115E+02</wgt>
<wgt id='8006'>0.79319E+02</wgt>
<wgt id='8007'>0.79370E+02</wgt>
<wgt id='8008'>0.79442E+02</wgt>
<wgt id='8009'>0.79596E+02</wgt>
<wgt id='8010'>0.79199E+02</wgt>
<wgt id='8011'>0.79268E+02</wgt>
<wgt id='8012'>0.79012E+02</wgt>
<wgt id='8013'>0.79146E+02</wgt>
<wgt id='8014'>0.79403E+02</wgt>
<wgt id='8015'>0.79223E+02</wgt>
<wgt id='8016'>0.79324E+02</wgt>
<wgt id='8017'>0.79300E+02</wgt>
<wgt id='8018'>0.79402E+02</wgt>
<wgt id='8019'>0.79384E+02</wgt>
<wgt id='8020'>0.79110E+02</wgt>
<wgt id='8021'>0.79235E+02</wgt>
<wgt id='8022'>0.78972E+02</wgt>
<wgt id='8023'>0.79269E+02</wgt>
<wgt id='8024'>0.79192E+02</wgt>
<wgt id='8025'>0.79381E+02</wgt>
<wgt id='8026'>0.79409E+02</wgt>
<wgt id='8027'>0.79251E+02</wgt>
<wgt id='8028'>0.79335E+02</wgt>
<wgt id='8029'>0.78858E+02</wgt>
<wgt id='3000'>0.81104E+02</wgt>
<wgt id='3001'>0.80266E+02</wgt>
<wgt id='3002'>0.80546E+02</wgt>
<wgt id='3003'>0.83235E+02</wgt>
<wgt id='3004'>0.81845E+02</wgt>
<wgt id='3005'>0.80757E+02</wgt>
<wgt id='3006'>0.83132E+02</wgt>
<wgt id='3007'>0.80449E+02</wgt>
<wgt id='3008'>0.80059E+02</wgt>
<wgt id='3009'>0.82601E+02</wgt>
<wgt id='3010'>0.82803E+02</wgt>
<wgt id='3011'>0.82663E+02</wgt>
<wgt id='3012'>0.80985E+02</wgt>
<wgt id='3013'>0.80237E+02</wgt>
<wgt id='3014'>0.79947E+02</wgt>
<wgt id='3015'>0.82521E+02</wgt>
<wgt id='3016'>0.82727E+02</wgt>
<wgt id='3017'>0.82736E+02</wgt>
<wgt id='3018'>0.80806E+02</wgt>
<wgt id='3019'>0.79793E+02</wgt>
<wgt id='3020'>0.80905E+02</wgt>
<wgt id='3021'>0.79469E+02</wgt>
<wgt id='3022'>0.79573E+02</wgt>
<wgt id='3023'>0.79721E+02</wgt>
<wgt id='3024'>0.79369E+02</wgt>
<wgt id='3025'>0.79692E+02</wgt>
<wgt id='3026'>0.80834E+02</wgt>
<wgt id='3027'>0.80201E+02</wgt>
<wgt id='3028'>0.80691E+02</wgt>
<wgt id='3029'>0.82487E+02</wgt>
<wgt id='3030'>0.83126E+02</wgt>
<wgt id='3031'>0.81882E+02</wgt>
<wgt id='3032'>0.82178E+02</wgt>
<wgt id='3033'>0.80240E+02</wgt>
<wgt id='3034'>0.80370E+02</wgt>
<wgt id='3035'>0.82548E+02</wgt>
<wgt id='3036'>0.80593E+02</wgt>
<wgt id='3037'>0.81264E+02</wgt>
<wgt id='3038'>0.80800E+02</wgt>
<wgt id='3039'>0.81779E+02</wgt>
<wgt id='3040'>0.80799E+02</wgt>
<wgt id='3041'>0.81536E+02</wgt>
<wgt id='3042'>0.79968E+02</wgt>
<wgt id='3043'>0.80951E+02</wgt>
<wgt id='3044'>0.80323E+02</wgt>
<wgt id='3045'>0.81259E+02</wgt>
<wgt id='3046'>0.81663E+02</wgt>
<wgt id='3047'>0.79015E+02</wgt>
<wgt id='3048'>0.78856E+02</wgt>
<wgt id='3049'>0.82272E+02</wgt>
<wgt id='3050'>0.82343E+02</wgt>
<wgt id='3051'>0.81250E+02</wgt>
<wgt id='3052'>0.79851E+02</wgt>
<wgt id='3053'>0.80911E+02</wgt>
<wgt id='3054'>0.81460E+02</wgt>
<wgt id='3055'>0.79107E+02</wgt>
<wgt id='3056'>0.80506E+02</wgt>
<wgt id='3057'>0.80563E+02</wgt>
<wgt id='3058'>0.79314E+02</wgt>
<wgt id='3059'>0.83289E+02</wgt>
<wgt id='3060'>0.81358E+02</wgt>
<wgt id='3061'>0.81152E+02</wgt>
<wgt id='3062'>0.80738E+02</wgt>
<wgt id='3063'>0.78928E+02</wgt>
<wgt id='3064'>0.80435E+02</wgt>
<wgt id='3065'>0.80416E+02</wgt>
<wgt id='3066'>0.81303E+02</wgt>
<wgt id='3067'>0.79228E+02</wgt>
<wgt id='3068'>0.82250E+02</wgt>
<wgt id='3069'>0.80358E+02</wgt>
<wgt id='3070'>0.79301E+02</wgt>
<wgt id='3071'>0.83035E+02</wgt>
<wgt id='3072'>0.82195E+02</wgt>
<wgt id='3073'>0.82220E+02</wgt>
<wgt id='3074'>0.82987E+02</wgt>
<wgt id='3075'>0.82514E+02</wgt>
<wgt id='3076'>0.83056E+02</wgt>
<wgt id='3077'>0.79907E+02</wgt>
<wgt id='3078'>0.82358E+02</wgt>
<wgt id='3079'>0.81104E+02</wgt>
<wgt id='3080'>0.80479E+02</wgt>
<wgt id='3081'>0.78966E+02</wgt>
<wgt id='3082'>0.82727E+02</wgt>
<wgt id='3083'>0.80977E+02</wgt>
<wgt id='3084'>0.81218E+02</wgt>
<wgt id='3085'>0.83799E+02</wgt>
<wgt id='3086'>0.78826E+02</wgt>
<wgt id='3087'>0.82219E+02</wgt>
<wgt id='3088'>0.82135E+02</wgt>
<wgt id='3089'>0.83908E+02</wgt>
<wgt id='3090'>0.80396E+02</wgt>
<wgt id='3091'>0.80157E+02</wgt>
<wgt id='3092'>0.82617E+02</wgt>
<wgt id='3093'>0.81997E+02</wgt>
<wgt id='3094'>0.80855E+02</wgt>
<wgt id='3095'>0.80526E+02</wgt>
<wgt id='3096'>0.80452E+02</wgt>
<wgt id='3097'>0.79639E+02</wgt>
<wgt id='3098'>0.81857E+02</wgt>
<wgt id='3099'>0.80394E+02</wgt>
<wgt id='3100'>0.80722E+02</wgt>
<wgt id='3200'>0.78740E+02</wgt>
<wgt id='3201'>0.79064E+02</wgt>
<wgt id='3202'>0.77965E+02</wgt>
<wgt id='3203'>0.78424E+02</wgt>
<wgt id='3204'>0.78284E+02</wgt>
<wgt id='3205'>0.79376E+02</wgt>
<wgt id='3206'>0.78986E+02</wgt>
<wgt id='3207'>0.79294E+02</wgt>
<wgt id='3208'>0.79115E+02</wgt>
<wgt id='3209'>0.78629E+02</wgt>
<wgt id='3210'>0.78701E+02</wgt>
<wgt id='3211'>0.79825E+02</wgt>
<wgt id='3212'>0.77768E+02</wgt>
<wgt id='3213'>0.78233E+02</wgt>
<wgt id='3214'>0.77779E+02</wgt>
<wgt id='3215'>0.78716E+02</wgt>
<wgt id='3216'>0.79036E+02</wgt>
<wgt id='3217'>0.79002E+02</wgt>
<wgt id='3218'>0.78733E+02</wgt>
<wgt id='3219'>0.78901E+02</wgt>
<wgt id='3220'>0.77960E+02</wgt>
<wgt id='3221'>0.79479E+02</wgt>
<wgt id='3222'>0.79415E+02</wgt>
<wgt id='3223'>0.78689E+02</wgt>
<wgt id='3224'>0.78361E+02</wgt>
<wgt id='3225'>0.79116E+02</wgt>
<wgt id='3226'>0.78809E+02</wgt>
<wgt id='3227'>0.78038E+02</wgt>
<wgt id='3228'>0.78104E+02</wgt>
<wgt id='3229'>0.79112E+02</wgt>
<wgt id='3230'>0.79282E+02</wgt>
<wgt id='3231'>0.79031E+02</wgt>
<wgt id='3232'>0.79205E+02</wgt>
<wgt id='3233'>0.78985E+02</wgt>
<wgt id='3234'>0.79100E+02</wgt>
<wgt id='3235'>0.78164E+02</wgt>
<wgt id='3236'>0.78132E+02</wgt>
<wgt id='3237'>0.78341E+02</wgt>
<wgt id='3238'>0.78746E+02</wgt>
<wgt id='3239'>0.78314E+02</wgt>
<wgt id='3240'>0.79052E+02</wgt>
<wgt id='3241'>0.79410E+02</wgt>
<wgt id='3242'>0.78009E+02</wgt>
<wgt id='3243'>0.77882E+02</wgt>
<wgt id='3244'>0.78479E+02</wgt>
<wgt id='3245'>0.79325E+02</wgt>
<wgt id='3246'>0.78385E+02</wgt>
<wgt id='3247'>0.78508E+02</wgt>
<wgt id='3248'>0.78428E+02</wgt>
<wgt id='3249'>0.78689E+02</wgt>
<wgt id='3250'>0.79208E+02</wgt>
<wgt id='3251'>0.78869E+02</wgt>
<wgt id='3252'>0.78763E+02</wgt>
<wgt id='3253'>0.78841E+02</wgt>
<wgt id='3254'>0.78813E+02</wgt>
<wgt id='3255'>0.78748E+02</wgt>
<wgt id='3256'>0.77813E+02</wgt>
<wgt id='3257'>0.78594E+02</wgt>
<wgt id='3258'>0.79261E+02</wgt>
<wgt id='3259'>0.78939E+02</wgt>
<wgt id='3260'>0.78616E+02</wgt>
<wgt id='3261'>0.79118E+02</wgt>
<wgt id='3262'>0.78238E+02</wgt>
<wgt id='3263'>0.78675E+02</wgt>
<wgt id='3264'>0.79185E+02</wgt>
<wgt id='3265'>0.79385E+02</wgt>
<wgt id='3266'>0.78341E+02</wgt>
<wgt id='3267'>0.78704E+02</wgt>
<wgt id='3268'>0.79763E+02</wgt>
<wgt id='3269'>0.78872E+02</wgt>
<wgt id='3270'>0.78878E+02</wgt>
<wgt id='3271'>0.78877E+02</wgt>
<wgt id='3272'>0.79275E+02</wgt>
<wgt id='3273'>0.78889E+02</wgt>
<wgt id='3274'>0.79245E+02</wgt>
<wgt id='3275'>0.78820E+02</wgt>
<wgt id='3276'>0.78755E+02</wgt>
<wgt id='3277'>0.78079E+02</wgt>
<wgt id='3278'>0.78674E+02</wgt>
<wgt id='3279'>0.79288E+02</wgt>
<wgt id='3280'>0.78529E+02</wgt>
<wgt id='3281'>0.78907E+02</wgt>
<wgt id='3282'>0.79204E+02</wgt>
<wgt id='3283'>0.78869E+02</wgt>
<wgt id='3284'>0.78721E+02</wgt>
<wgt id='3285'>0.78059E+02</wgt>
<wgt id='3286'>0.78870E+02</wgt>
<wgt id='3287'>0.78202E+02</wgt>
<wgt id='3288'>0.79321E+02</wgt>
<wgt id='3289'>0.80125E+02</wgt>
<wgt id='3290'>0.79897E+02</wgt>
<wgt id='3291'>0.77523E+02</wgt>
<wgt id='3292'>0.77365E+02</wgt>
<wgt id='3293'>0.78262E+02</wgt>
<wgt id='3294'>0.77508E+02</wgt>
<wgt id='3295'>0.78014E+02</wgt>
<wgt id='3296'>0.79937E+02</wgt>
<wgt id='3297'>0.78569E+02</wgt>
<wgt id='3298'>0.78972E+02</wgt>
<wgt id='3299'>0.78170E+02</wgt>
<wgt id='3300'>0.79154E+02</wgt>
<wgt id='3301'>0.77450E+02</wgt>
<wgt id='3302'>0.79959E+02</wgt>
<wgt id='3400'>0.78788E+02</wgt>
<wgt id='3401'>0.78806E+02</wgt>
<wgt id='3402'>0.78668E+02</wgt>
<wgt id='3403'>0.79743E+02</wgt>
<wgt id='3404'>0.80066E+02</wgt>
<wgt id='3405'>0.79455E+02</wgt>
<wgt id='3406'>0.78831E+02</wgt>
<wgt id='3407'>0.78325E+02</wgt>
<wgt id='3408'>0.80456E+02</wgt>
<wgt id='3409'>0.79766E+02</wgt>
<wgt id='3410'>0.78532E+02</wgt>
<wgt id='3411'>0.79346E+02</wgt>
<wgt id='3412'>0.79626E+02</wgt>
<wgt id='3413'>0.78656E+02</wgt>
<wgt id='3414'>0.78542E+02</wgt>
<wgt id='3415'>0.78840E+02</wgt>
<wgt id='3416'>0.78260E+02</wgt>
<wgt id='3417'>0.79104E+02</wgt>
<wgt id='3418'>0.78322E+02</wgt>
<wgt id='3419'>0.78481E+02</wgt>
<wgt id='3420'>0.79350E+02</wgt>
<wgt id='3421'>0.79146E+02</wgt>
<wgt id='3422'>0.79696E+02</wgt>
<wgt id='3423'>0.79307E+02</wgt>
<wgt id='3424'>0.79066E+02</wgt>
<wgt id='3425'>0.78427E+02</wgt>
<wgt id='3426'>0.79397E+02</wgt>
<wgt id='3427'>0.78840E+02</wgt>
<wgt id='3428'>0.79840E+02</wgt>
<wgt id='3429'>0.78214E+02</wgt>
<wgt id='3430'>0.79375E+02</wgt>
<wgt id='3431'>0.78967E+02</wgt>
<wgt id='3432'>0.78787E+02</wgt>
<wgt id='3433'>0.77308E+02</wgt>
<wgt id='3434'>0.78575E+02</wgt>
<wgt id='3435'>0.78687E+02</wgt>
<wgt id='3436'>0.78990E+02</wgt>
<wgt id='3437'>0.78852E+02</wgt>
<wgt id='3438'>0.78065E+02</wgt>
<wgt id='3439'>0.79450E+02</wgt>
<wgt id='3440'>0.78831E+02</wgt>
<wgt id='3441'>0.78713E+02</wgt>
<wgt id='3442'>0.77167E+02</wgt>
<wgt id='3443'>0.78525E+02</wgt>
<wgt id='3444'>0.78507E+02</wgt>
<wgt id='3445'>0.78352E+02</wgt>
<wgt id='3446'>0.79271E+02</wgt>
<wgt id='3447'>0.80489E+02</wgt>
<wgt id='3448'>0.79311E+02</wgt>
<wgt id='3449'>0.79282E+02</wgt>
<wgt id='3450'>0.78659E+02</wgt>
<wgt id='3451'>0.80031E+02</wgt>
<wgt id='3452'>0.78385E+02</wgt>
<wgt id='3453'>0.78362E+02</wgt>
<wgt id='3454'>0.77764E+02</wgt>
<wgt id='3455'>0.79886E+02</wgt>
<wgt id='3456'>0.79173E+02</wgt>
<wgt id='3457'>0.79468E+02</wgt>
<wgt id='3458'>0.78899E+02</wgt>
<wgt id='3459'>0.78447E+02</wgt>
<wgt id='3460'>0.78438E+02</wgt>
<wgt id='3461'>0.78217E+02</wgt>
<wgt id='3462'>0.78106E+02</wgt>
<wgt id='3463'>0.77893E+02</wgt>
<wgt id='3464'>0.79313E+02</wgt>
<wgt id='3465'>0.78372E+02</wgt>
<wgt id='3466'>0.79004E+02</wgt>
<wgt id='3467'>0.78587E+02</wgt>
<wgt id='3468'>0.77514E+02</wgt>
<wgt id='3469'>0.78924E+02</wgt>
<wgt id='3470'>0.78972E+02</wgt>
<wgt id='3471'>0.78818E+02</wgt>
<wgt id='3472'>0.78267E+02</wgt>
<wgt id='3473'>0.78974E+02</wgt>
<wgt id='3474'>0.78638E+02</wgt>
<wgt id='3475'>0.78500E+02</wgt>
<wgt id='3476'>0.79184E+02</wgt>
<wgt id='3477'>0.77837E+02</wgt>
<wgt id='3478'>0.78895E+02</wgt>
<wgt id='3479'>0.79980E+02</wgt>
<wgt id='3480'>0.78171E+02</wgt>
<wgt id='3481'>0.79076E+02</wgt>
<wgt id='3482'>0.78109E+02</wgt>
<wgt id='3483'>0.77252E+02</wgt>
<wgt id='3484'>0.78600E+02</wgt>
<wgt id='3485'>0.78586E+02</wgt>
<wgt id='3486'>0.77521E+02</wgt>
<wgt id='3487'>0.78913E+02</wgt>
<wgt id='3488'>0.79862E+02</wgt>
<wgt id='3489'>0.77975E+02</wgt>
<wgt id='3490'>0.78819E+02</wgt>
<wgt id='3491'>0.78868E+02</wgt>
<wgt id='3492'>0.79269E+02</wgt>
<wgt id='3493'>0.78186E+02</wgt>
<wgt id='3494'>0.77326E+02</wgt>
<wgt id='3495'>0.78894E+02</wgt>
<wgt id='3496'>0.77647E+02</wgt>
<wgt id='3497'>0.78121E+02</wgt>
<wgt id='3498'>0.79120E+02</wgt>
<wgt id='3499'>0.78917E+02</wgt>
<wgt id='3500'>0.79530E+02</wgt>
</rwgt>
</event>
<event>
     13 322200  8.11039E+01  1.53447E+01 -1.00000E+00  1.73193E-01
       1    -1     0     0   502     0  0.000000000E+00  0.000000000E+00  1.494967910E+03  1.494967910E+03  0.000000000E+00  0.00000E+00  9.000E+00
      21    -1     0     0   512   513  0.000000000E+00  0.000000000E+00 -5.637770129E+02  5.637770129E+02  0.000000000E+00  0.00000E+00  9.000E+00
       6     2     1     2   502     0 -1.394671916E+02 -1.084537484E+02 -4.338480164E+02  4.987697864E+02  1.712713795E+02  0.00000E+00  9.000E+00
      -6     2     1     2     0   513  1.258312723E+02  1.014166459E+02  4.458956260E+01  2.394366132E+02  1.709468265E+02  0.00000E+00  9.000E+00
       1     1     1     2   512     0  1.363591937E+01  7.037102432E+00  1.320449351E+03  1.320538523E+03  2.100000000E-01  0.00000E+00  9.000E+00
      24     2     3     3     0     0 -1.275583136E+02 -1.476029949E+01 -2.733911619E+02  3.125111236E+02  8.019654063E+01  0.00000E+00  9.000E+00
       5     1     3     3   502     0 -1.190887808E+01 -9.369344887E+01 -1.604568545E+02  1.862586629E+02  5.060000000E+00  0.00000E+00 -1.000E+00
     -24     2     4     4     0     0  1.234893766E+02  1.164886687E+02  7.762818079E+01  2.026969312E+02  7.899794539E+01  0.00000E+00  9.000E+00
      -5     1     4     4     0   513  2.341895623E+00 -1.507202276E+01 -3.303861819E+01  3.673968205E+01  5.060000000E+00  0.00000E+00  1.000E+00
     -13     1     6     6     0     0  6.163572861E+00  1.122674993E+01 -4.293220163E+01  4.480194922E+01  1.057000000E-01  0.00000E+00  1.000E+00
      14     1     6     6     0     0 -1.337218864E+02 -2.598704942E+01 -2.304589603E+02  2.677091744E+02  0.000000000E+00  0.00000E+00 -1.000E+00
      15     1     8     8     0     0  8.782347677E+01  6.407614926E+01  8.616125818E+01  1.387286420E+02  1.777000000E+00  0.00000E+00 -1.000E+00
     -16     1     8     8     0     0  3.566589987E+01  5.241251943E+01 -8.533077393E+00  6.396828914E+01  0.000000000E+00  0.00000E+00  1.000E+00
#rwgt            1           1   827.72466265895480               10       24535           0
<rwgt>
<wgt id='1001'>0.81104E+02</wgt>
<wgt id='1002'>0.76167E+02</wgt>
<wgt id='1003'>0.86554E+02</wgt>
<wgt id='1004'>0.69703E+02</wgt>
<wgt id='1005'>0.65366E+02</wgt>
<wgt id='1006'>0.74489E+02</wgt>
<wgt id='1007'>0.95573E+02</wgt>
<wgt id='1008'>0.89917E+02</wgt>
<wgt id='1009'>0.10182E+03</wgt>
<wgt id='2000'>0.81104E+02</wgt>
<wgt id='2001'>0.81071E+02</wgt>
<wgt id='2002'>0.80928E+02</wgt>
<wgt id='2003'>0.81149E+02</wgt>
<wgt id='2004'>0.81247E+02</wgt>
<wgt id='2005'>0.81087E+02</wgt>
<wgt id='2006'>0.81253E+02</wgt>
<wgt id='2007'>0.81143E+02</wgt>
<wgt id='2008'>0.81303E+02</wgt>
<wgt id='2009'>0.80997E+02</wgt>
<wgt id='2010'>0.81042E+02</wgt>
<wgt id='2011'>0.80993E+02</wgt>
<wgt id='2012'>0.81166E+02</wgt>
<wgt id='2013'>0.81245E+02</wgt>
<wgt id='2014'>0.81332E+02</wgt>
<wgt id='2015'>0.81282E+02</wgt>
<wgt id='2016'>0.81195E+02</wgt>
<wgt id='2017'>0.81253E+02</wgt>
<wgt id='2018'>0.81012E+02</wgt>
<wgt id='2019'>0.80997E+02</wgt>
<wgt id='2020'>0.81082E+02</wgt>
<wgt id='2021'>0.80953E+02</wgt>
<wgt id='2022'>0.81153E+02</wgt>
<wgt id='2023'>0.81259E+02</wgt>
<wgt id='2024'>0.80967E+02</wgt>
<wgt id='2025'>0.80978E+02</wgt>
<wgt id='2026'>0.80982E+02</wgt>
<wgt id='2027'>0.80848E+02</wgt>
<wgt id='2028'>0.81171E+02</wgt>
<wgt id='2029'>0.80725E+02</wgt>
<wgt id='2030'>0.81158E+02</wgt>
<wgt id='2031'>0.80801E+02</wgt>
<wgt id='2032'>0.81215E+02</wgt>
<wgt id='2033'>0.80978E+02</wgt>
<wgt id='2034'>0.80939E+02</wgt>
<wgt id='2035'>0.81087E+02</wgt>
<wgt id='2036'>0.81277E+02</wgt>
<wgt id='2037'>0.81092E+02</wgt>
<wgt id='2038'>0.81033E+02</wgt>
<wgt id='2039'>0.81111E+02</wgt>
<wgt id='2040'>0.81051E+02</wgt>
<wgt id='2041'>0.81082E+02</wgt>
<wgt id='2042'>0.81186E+02</wgt>
<wgt id='2043'>0.81047E+02</wgt>
<wgt id='2044'>0.81182E+02</wgt>
<wgt id='2045'>0.81081E+02</wgt>
<wgt id='2046'>0.81094E+02</wgt>
<wgt id='2047'>0.81099E+02</wgt>
<wgt id='2048'>0.81069E+02</wgt>
<wgt id='2049'>0.81034E+02</wgt>
<wgt id='2050'>0.81072E+02</wgt>
<wgt id='2051'>0.81090E+02</wgt>
<wgt id='2052'>0.81173E+02</wgt>
<wgt id='2053'>0.81088E+02</wgt>
<wgt id='2054'>0.81096E+02</wgt>
<wgt id='2055'>0.81121E+02</wgt>
<wgt id='2056'>0.81046E+02</wgt>
<wgt id='2057'>0.81132E+02</wgt>
<wgt id='2058'>0.81120E+02</wgt>
<wgt id='2059'>0.81094E+02</wgt>
<wgt id='2060'>0.81106E+02</wgt>
<wgt id='2061'>0.81087E+02</wgt>
<wgt id='2062'>0.81169E+02</wgt>
<wgt id='2063'>0.81125E+02</wgt>
<wgt id='2064'>0.81117E+02</wgt>
<wgt id='2065'>0.81179E+02</wgt>
<wgt id='2066'>0.81092E+02</wgt>
<wgt id='2067'>0.81122E+02</wgt>
<wgt id='2068'>0.81125E+02</wgt>
<wgt id='2069'>0.81103E+02</wgt>
<wgt id='2070'>0.81113E+02</wgt>
<wgt id='2071'>0.81100E+02</wgt>
<wgt id='2072'>0.81101E+02</wgt>
<wgt id='2073'>0.81120E+02</wgt>
<wgt id='2074'>0.81085E+02</wgt>
<wgt id='2075'>0.81087E+02</wgt>
<wgt id='2076'>0.81087E+02</wgt>
<wgt id='2077'>0.81149E+02</wgt>
<wgt id='2078'>0.81115E+02</wgt>
<wgt id='2079'>0.81086E+02</wgt>
<wgt id='2080'>0.81115E+02</wgt>
<wgt id='2081'>0.81095E+02</wgt>
<wgt id='2082'>0.81113E+02</wgt>
<wgt id='2083'>0.81137E+02</wgt>
<wgt id='2084'>0.81107E+02</wgt>
<wgt id='2085'>0.81106E+02</wgt>
<wgt id='2086'>0.81092E+02</wgt>
<wgt id='2087'>0.81115E+02</wgt>
<wgt id='2088'>0.81097E+02</wgt>
<wgt id='2089'>0.81090E+02</wgt>
<wgt id='2090'>0.81119E+02</wgt>
<wgt id='2091'>0.81104E+02</wgt>
<wgt id='2092'>0.81126E+02</wgt>
<wgt id='2093'>0.81088E+02</wgt>
<wgt id='2094'>0.81111E+02</wgt>
<wgt id='2095'>0.81121E+02</wgt>
<wgt id='2096'>0.81092E+02</wgt>
<wgt id='2097'>0.81116E+02</wgt>
<wgt id='2098'>0.81099E+02</wgt>
<wgt id='2099'>0.81115E+02</wgt>
<wgt id='2100'>0.81104E+02</wgt>
<wgt id='2101'>0.78859E+02</wgt>
<wgt id='2102'>0.83557E+02</wgt>
<wgt id='2200'>0.81218E+02</wgt>
<wgt id='2201'>0.70378E+02</wgt>
<wgt id='2202'>0.72564E+02</wgt>
<wgt id='2203'>0.74729E+02</wgt>
<wgt id='2204'>0.76716E+02</wgt>
<wgt id='2205'>0.80154E+02</wgt>
<wgt id='2206'>0.82415E+02</wgt>
<wgt id='2207'>0.85551E+02</wgt>
<wgt id='2208'>0.87780E+02</wgt>
<wgt id='2300'>0.84841E+02</wgt>
<wgt id='2301'>0.84919E+02</wgt>
<wgt id='2302'>0.84778E+02</wgt>
<wgt id='2303'>0.84826E+02</wgt>
<wgt id='2304'>0.85068E+02</wgt>
<wgt id='2305'>0.84897E+02</wgt>
<wgt id='2306'>0.84777E+02</wgt>
<wgt id='2307'>0.84970E+02</wgt>
<wgt id='2308'>0.84819E+02</wgt>
<wgt id='2309'>0.85049E+02</wgt>
<wgt id='2310'>0.84741E+02</wgt>
<wgt id='2311'>0.84690E+02</wgt>
<wgt id='2312'>0.84876E+02</wgt>
<wgt id='2313'>0.84948E+02</wgt>
<wgt id='2314'>0.84865E+02</wgt>
<wgt id='2315'>0.84715E+02</wgt>
<wgt id='2316'>0.84865E+02</wgt>
<wgt id='2317'>0.84828E+02</wgt>
<wgt id='2318'>0.84947E+02</wgt>
<wgt id='2319'>0.84875E+02</wgt>
<wgt id='2320'>0.84833E+02</wgt>
<wgt id='2321'>0.84850E+02</wgt>
<wgt id='2322'>0.84837E+02</wgt>
<wgt id='2323'>0.84803E+02</wgt>
<wgt id='2324'>0.84762E+02</wgt>
<wgt id='2325'>0.84934E+02</wgt>
<wgt id='2326'>0.84816E+02</wgt>
<wgt id='2327'>0.84878E+02</wgt>
<wgt id='2328'>0.84666E+02</wgt>
<wgt id='2329'>0.84597E+02</wgt>
<wgt id='2330'>0.85333E+02</wgt>
<wgt id='2331'>0.85085E+02</wgt>
<wgt id='2332'>0.84857E+02</wgt>
<wgt id='2333'>0.85009E+02</wgt>
<wgt id='2334'>0.84842E+02</wgt>
<wgt id='2335'>0.85224E+02</wgt>
<wgt id='2336'>0.84954E+02</wgt>
<wgt id='2337'>0.84777E+02</wgt>
<wgt id='2338'>0.84859E+02</wgt>
<wgt id='2339'>0.84952E+02</wgt>
<wgt id='2340'>0.84694E+02</wgt>
<wgt id='2341'>0.84862E+02</wgt>
<wgt id='2342'>0.84746E+02</wgt>
<wgt id='2343'>0.84690E+02</wgt>
<wgt id='2344'>0.84922E+02</wgt>
<wgt id='2345'>0.84923E+02</wgt>
<wgt id='2346'>0.84957E+02</wgt>
<wgt id='2347'>0.84847E+02</wgt>
<wgt id='2348'>0.84830E+02</wgt>
<wgt id='2349'>0.84799E+02</wgt>
<wgt id='2350'>0.84737E+02</wgt>
<wgt id='2351'>0.84977E+02</wgt>
<wgt id='2352'>0.84786E+02</wgt>
<wgt id='2353'>0.84842E+02</wgt>
<wgt id='2354'>0.84868E+02</wgt>
<wgt id='2355'>0.84768E+02</wgt>
<wgt id='2356'>0.84869E+02</wgt>
<wgt id='2357'>0.84865E+02</wgt>
<wgt id='2358'>0.84763E+02</wgt>
<wgt id='2359'>0.84875E+02</wgt>
<wgt id='2360'>0.84889E+02</wgt>
<wgt id='2361'>0.84924E+02</wgt>
<wgt id='2362'>0.84878E+02</wgt>
<wgt id='2363'>0.84855E+02</wgt>
<wgt id='2364'>0.84815E+02</wgt>
<wgt id='2365'>0.84825E+02</wgt>
<wgt id='2366'>0.84874E+02</wgt>
<wgt id='2367'>0.84761E+02</wgt>
<wgt id='2368'>0.84871E+02</wgt>
<wgt id='2369'>0.84797E+02</wgt>
<wgt id='2370'>0.84815E+02</wgt>
<wgt id='2371'>0.84816E+02</wgt>
<wgt id='2372'>0.84867E+02</wgt>
<wgt id='2373'>0.84821E+02</wgt>
<wgt id='2374'>0.84865E+02</wgt>
<wgt id='2375'>0.84854E+02</wgt>
<wgt id='2376'>0.84840E+02</wgt>
<wgt id='2377'>0.84843E+02</wgt>
<wgt id='2378'>0.84872E+02</wgt>
<wgt id='2379'>0.84829E+02</wgt>
<wgt id='2380'>0.84827E+02</wgt>
<wgt id='2381'>0.84836E+02</wgt>
<wgt id='2382'>0.84832E+02</wgt>
<wgt id='2383'>0.84828E+02</wgt>
<wgt id='2384'>0.84814E+02</wgt>
<wgt id='2385'>0.84855E+02</wgt>
<wgt id='2386'>0.84825E+02</wgt>
<wgt id='2387'>0.84825E+02</wgt>
<wgt id='2388'>0.84828E+02</wgt>
<wgt id='2389'>0.84843E+02</wgt>
<wgt id='2390'>0.84851E+02</wgt>
<wgt id='2391'>0.84845E+02</wgt>
<wgt id='2392'>0.84838E+02</wgt>
<wgt id='2393'>0.84843E+02</wgt>
<wgt id='2394'>0.84858E+02</wgt>
<wgt id='2395'>0.84846E+02</wgt>
<wgt id='2396'>0.84833E+02</wgt>
<wgt id='2397'>0.84825E+02</wgt>
<wgt id='2398'>0.84831E+02</wgt>
<wgt id='2399'>0.84853E+02</wgt>
<wgt id='2400'>0.84849E+02</wgt>
<wgt id='2401'>0.82428E+02</wgt>
<wgt id='2402'>0.87119E+02</wgt>
<wgt id='2500'>0.81916E+02</wgt>
<wgt id='2501'>0.87133E+02</wgt>
<wgt id='2600'>0.78149E+02</wgt>
<wgt id='2601'>0.78134E+02</wgt>
<wgt id='2602'>0.78070E+02</wgt>
<wgt id='2603'>0.78117E+02</wgt>
<wgt id='2604'>0.78151E+02</wgt>
<wgt id='2605'>0.78035E+02</wgt>
<wgt id='2606'>0.78045E+02</wgt>
<wgt id='2607'>0.78217E+02</wgt>
<wgt id='2608'>0.78125E+02</wgt>
<wgt id='2609'>0.78056E+02</wgt>
<wgt id='2610'>0.78096E+02</wgt>
<wgt id='2611'>0.78077E+02</wgt>
<wgt id='2612'>0.78409E+02</wgt>
<wgt id='2613'>0.78114E+02</wgt>
<wgt id='2614'>0.78112E+02</wgt>
<wgt id='2615'>0.77962E+02</wgt>
<wgt id='2616'>0.78128E+02</wgt>
<wgt id='2617'>0.77964E+02</wgt>
<wgt id='2618'>0.77943E+02</wgt>
<wgt id='2619'>0.78213E+02</wgt>
<wgt id='2620'>0.78144E+02</wgt>
<wgt id='2621'>0.78151E+02</wgt>
<wgt id='2622'>0.78338E+02</wgt>
<wgt id='2623'>0.78145E+02</wgt>
<wgt id='2624'>0.78154E+02</wgt>
<wgt id='2625'>0.78079E+02</wgt>
<wgt id='2626'>0.78133E+02</wgt>
<wgt id='2627'>0.78125E+02</wgt>
<wgt id='2628'>0.78169E+02</wgt>
<wgt id='2629'>0.78154E+02</wgt>
<wgt id='2630'>0.78162E+02</wgt>
<wgt id='2631'>0.78094E+02</wgt>
<wgt id='2632'>0.78163E+02</wgt>
<wgt id='2633'>0.78127E+02</wgt>
<wgt id='2634'>0.78121E+02</wgt>
<wgt id='2635'>0.78143E+02</wgt>
<wgt id='2636'>0.78133E+02</wgt>
<wgt id='2637'>0.78155E+02</wgt>
<wgt id='2638'>0.78173E+02</wgt>
<wgt id='2639'>0.78150E+02</wgt>
<wgt id='2640'>0.78147E+02</wgt>
<wgt id='2641'>0.78166E+02</wgt>
<wgt id='2642'>0.78160E+02</wgt>
<wgt id='2643'>0.78153E+02</wgt>
<wgt id='2644'>0.78144E+02</wgt>
<wgt id='2645'>0.78150E+02</wgt>
<wgt id='2646'>0.78158E+02</wgt>
<wgt id='2647'>0.78151E+02</wgt>
<wgt id='2648'>0.78148E+02</wgt>
<wgt id='2649'>0.78152E+02</wgt>
<wgt id='2650'>0.78149E+02</wgt>
<wgt id='2651'>0.76729E+02</wgt>
<wgt id='2652'>0.79458E+02</wgt>
<wgt id='2700'>0.75395E+02</wgt>
<wgt id='2701'>0.76729E+02</wgt>
<wgt id='2702'>0.77486E+02</wgt>
<wgt id='2703'>0.78701E+02</wgt>
<wgt id='2704'>0.79458E+02</wgt>
<wgt id='2705'>0.80691E+02</wgt>
<wgt id='2800'>0.79443E+02</wgt>
<wgt id='4000'>0.80279E+02</wgt>
<wgt id='4001'>0.80653E+02</wgt>
<wgt id='4002'>0.80224E+02</wgt>
<wgt id='4003'>0.80520E+02</wgt>
<wgt id='4004'>0.80060E+02</wgt>
<wgt id='4005'>0.80036E+02</wgt>
<wgt id='4006'>0.80574E+02</wgt>
<wgt id='4007'>0.81209E+02</wgt>
<wgt id='4008'>0.79385E+02</wgt>
<wgt id='4009'>0.80684E+02</wgt>
<wgt id='4010'>0.79875E+02</wgt>
<wgt id='4011'>0.80605E+02</wgt>
<wgt id='4012'>0.79962E+02</wgt>
<wgt id='4013'>0.80893E+02</wgt>
<wgt id='4014'>0.79773E+02</wgt>
<wgt id='4015'>0.79854E+02</wgt>
<wgt id='4016'>0.80865E+02</wgt>
<wgt id='4017'>0.80208E+02</wgt>
<wgt id='4018'>0.80398E+02</wgt>
<wgt id='4019'>0.80809E+02</wgt>
<wgt id='4020'>0.79518E+02</wgt>
<wgt id='4021'>0.80402E+02</wgt>
<wgt id='4022'>0.80048E+02</wgt>
<wgt id='4023'>0.80345E+02</wgt>
<wgt id='4024'>0.80395E+02</wgt>
<wgt id='4025'>0.80488E+02</wgt>
<wgt id='4026'>0.79820E+02</wgt>
<wgt id='4027'>0.80334E+02</wgt>
<wgt id='4028'>0.80312E+02</wgt>
<wgt id='4029'>0.79907E+02</wgt>
<wgt id='4030'>0.79971E+02</wgt>
<wgt id='4031'>0.79987E+02</wgt>
<wgt id='4032'>0.80771E+02</wgt>
<wgt id='4033'>0.80506E+02</wgt>
<wgt id='4034'>0.79795E+02</wgt>
<wgt id='4035'>0.81496E+02</wgt>
<wgt id='4036'>0.79373E+02</wgt>
<wgt id='4037'>0.81862E+02</wgt>
<wgt id='4038'>0.79083E+02</wgt>
<wgt id='4039'>0.81792E+02</wgt>
<wgt id='4040'>0.78766E+02</wgt>
<wgt id='4041'>0.80279E+02</wgt>
<wgt id='4042'>0.80158E+02</wgt>
<wgt id='4043'>0.79373E+02</wgt>
<wgt id='4044'>0.80309E+02</wgt>
<wgt id='4045'>0.81653E+02</wgt>
<wgt id='4046'>0.79653E+02</wgt>
<wgt id='4047'>0.79470E+02</wgt>
<wgt id='4048'>0.80705E+02</wgt>
<wgt id='4049'>0.80267E+02</wgt>
<wgt id='4050'>0.80302E+02</wgt>
<wgt id='4051'>0.81240E+02</wgt>
<wgt id='4052'>0.79454E+02</wgt>
<wgt id='4053'>0.80870E+02</wgt>
<wgt id='4054'>0.79231E+02</wgt>
<wgt id='4055'>0.80742E+02</wgt>
<wgt id='4056'>0.79825E+02</wgt>
<wgt id='4057'>0.79458E+02</wgt>
<wgt id='4058'>0.80808E+02</wgt>
<wgt id='4100'>0.80746E+02</wgt>
<wgt id='4101'>0.80524E+02</wgt>
<wgt id='4102'>0.80012E+02</wgt>
<wgt id='4103'>0.79723E+02</wgt>
<wgt id='4200'>0.77088E+02</wgt>
<wgt id='4201'>0.77188E+02</wgt>
<wgt id='4202'>0.77263E+02</wgt>
<wgt id='4203'>0.76406E+02</wgt>
<wgt id='4204'>0.77602E+02</wgt>
<wgt id='4205'>0.76998E+02</wgt>
<wgt id='4206'>0.77367E+02</wgt>
<wgt id='4207'>0.77090E+02</wgt>
<wgt id='4208'>0.77158E+02</wgt>
<wgt id='4209'>0.77269E+02</wgt>
<wgt id='4210'>0.77099E+02</wgt>
<wgt id='4211'>0.78118E+02</wgt>
<wgt id='4212'>0.76288E+02</wgt>
<wgt id='4213'>0.77306E+02</wgt>
<wgt id='4214'>0.76755E+02</wgt>
<wgt id='4215'>0.77148E+02</wgt>
<wgt id='4216'>0.76850E+02</wgt>
<wgt id='4217'>0.76738E+02</wgt>
<wgt id='4218'>0.77336E+02</wgt>
<wgt id='4219'>0.75990E+02</wgt>
<wgt id='4220'>0.78140E+02</wgt>
<wgt id='4221'>0.76472E+02</wgt>
<wgt id='4222'>0.77865E+02</wgt>
<wgt id='4223'>0.77356E+02</wgt>
<wgt id='4224'>0.76377E+02</wgt>
<wgt id='4225'>0.75739E+02</wgt>
<wgt id='4226'>0.78462E+02</wgt>
<wgt id='4227'>0.77801E+02</wgt>
<wgt id='4228'>0.76494E+02</wgt>
<wgt id='4229'>0.76124E+02</wgt>
<wgt id='4230'>0.77787E+02</wgt>
<wgt id='4231'>0.77201E+02</wgt>
<wgt id='4232'>0.76859E+02</wgt>
<wgt id='4233'>0.77358E+02</wgt>
<wgt id='4234'>0.76518E+02</wgt>
<wgt id='4235'>0.77580E+02</wgt>
<wgt id='4236'>0.76685E+02</wgt>
<wgt id='4237'>0.77376E+02</wgt>
<wgt id='4238'>0.76456E+02</wgt>
<wgt id='4239'>0.77432E+02</wgt>
<wgt id='4240'>0.75941E+02</wgt>
<wgt id='4241'>0.76830E+02</wgt>
<wgt id='4242'>0.77354E+02</wgt>
<wgt id='4243'>0.77044E+02</wgt>
<wgt id='4244'>0.77426E+02</wgt>
<wgt id='4245'>0.76414E+02</wgt>
<wgt id='4246'>0.77643E+02</wgt>
<wgt id='4247'>0.76758E+02</wgt>
<wgt id='4248'>0.77210E+02</wgt>
<wgt id='4249'>0.78370E+02</wgt>
<wgt id='4250'>0.75619E+02</wgt>
<wgt id='4251'>0.76719E+02</wgt>
<wgt id='4252'>0.77247E+02</wgt>
<wgt id='4253'>0.76880E+02</wgt>
<wgt id='4254'>0.77128E+02</wgt>
<wgt id='4255'>0.77627E+02</wgt>
<wgt id='4256'>0.76731E+02</wgt>
<wgt id='4257'>0.75646E+02</wgt>
<wgt id='4258'>0.77499E+02</wgt>
<wgt id='4300'>0.79488E+02</wgt>
<wgt id='4301'>0.78640E+02</wgt>
<wgt id='5000'>0.79950E+02</wgt>
<wgt id='5001'>0.79995E+02</wgt>
<wgt id='5002'>0.79893E+02</wgt>
<wgt id='5003'>0.79969E+02</wgt>
<wgt id='5004'>0.79933E+02</wgt>
<wgt id='5005'>0.79962E+02</wgt>
<wgt id='5006'>0.79930E+02</wgt>
<wgt id='5007'>0.80019E+02</wgt>
<wgt id='5008'>0.79894E+02</wgt>
<wgt id='5009'>0.80071E+02</wgt>
<wgt id='5010'>0.79826E+02</wgt>
<wgt id='5011'>0.80148E+02</wgt>
<wgt id='5012'>0.79760E+02</wgt>
<wgt id='5013'>0.80086E+02</wgt>
<wgt id='5014'>0.79854E+02</wgt>
<wgt id='5015'>0.79540E+02</wgt>
<wgt id='5016'>0.79540E+02</wgt>
<wgt id='5017'>0.80373E+02</wgt>
<wgt id='5018'>0.79665E+02</wgt>
<wgt id='5019'>0.80238E+02</wgt>
<wgt id='5020'>0.79555E+02</wgt>
<wgt id='5021'>0.80036E+02</wgt>
<wgt id='5022'>0.79818E+02</wgt>
<wgt id='5023'>0.79877E+02</wgt>
<wgt id='5024'>0.80126E+02</wgt>
<wgt id='5025'>0.79698E+02</wgt>
<wgt id='5026'>0.80232E+02</wgt>
<wgt id='5027'>0.79997E+02</wgt>
<wgt id='5028'>0.79824E+02</wgt>
<wgt id='5029'>0.80774E+02</wgt>
<wgt id='5030'>0.79485E+02</wgt>
<wgt id='5031'>0.79513E+02</wgt>
<wgt id='5032'>0.81286E+02</wgt>
<wgt id='5033'>0.79928E+02</wgt>
<wgt id='5034'>0.79974E+02</wgt>
<wgt id='5035'>0.79959E+02</wgt>
<wgt id='5036'>0.79940E+02</wgt>
<wgt id='5037'>0.79778E+02</wgt>
<wgt id='5038'>0.80047E+02</wgt>
<wgt id='5039'>0.80155E+02</wgt>
<wgt id='5040'>0.79443E+02</wgt>
<wgt id='5041'>0.80040E+02</wgt>
<wgt id='5042'>0.79857E+02</wgt>
<wgt id='5043'>0.80113E+02</wgt>
<wgt id='5044'>0.79842E+02</wgt>
<wgt id='5045'>0.79807E+02</wgt>
<wgt id='5046'>0.80277E+02</wgt>
<wgt id='5047'>0.80003E+02</wgt>
<wgt id='5048'>0.79716E+02</wgt>
<wgt id='5049'>0.79912E+02</wgt>
<wgt id='5050'>0.80049E+02</wgt>
<wgt id='5051'>0.80099E+02</wgt>
<wgt id='5052'>0.79834E+02</wgt>
<wgt id='5053'>0.79922E+02</wgt>
<wgt id='5054'>0.80122E+02</wgt>
<wgt id='5055'>0.79992E+02</wgt>
<wgt id='5056'>0.79983E+02</wgt>
<wgt id='5057'>0.79671E+02</wgt>
<wgt id='5058'>0.80146E+02</wgt>
<wgt id='5059'>0.79908E+02</wgt>
<wgt id='5060'>0.79982E+02</wgt>
<wgt id='5061'>0.80245E+02</wgt>
<wgt id='5062'>0.80018E+02</wgt>
<wgt id='5063'>0.80276E+02</wgt>
<wgt id='5064'>0.79902E+02</wgt>
<wgt id='5100'>0.79950E+02</wgt>
<wgt id='5101'>0.79957E+02</wgt>
<wgt id='6000'>0.79870E+02</wgt>
<wgt id='6001'>0.79881E+02</wgt>
<wgt id='6002'>0.79773E+02</wgt>
<wgt id='6003'>0.79763E+02</wgt>
<wgt id='6004'>0.79939E+02</wgt>
<wgt id='6005'>0.79620E+02</wgt>
<wgt id='6006'>0.80087E+02</wgt>
<wgt id='6007'>0.79657E+02</wgt>
<wgt id='6008'>0.79624E+02</wgt>
<wgt id='6009'>0.80028E+02</wgt>
<wgt id='6010'>0.78733E+02</wgt>
<wgt id='6011'>0.79849E+02</wgt>
<wgt id='6012'>0.80116E+02</wgt>
<wgt id='6013'>0.79606E+02</wgt>
<wgt id='6014'>0.79707E+02</wgt>
<wgt id='6015'>0.79276E+02</wgt>
<wgt id='6016'>0.80025E+02</wgt>
<wgt id='6017'>0.79771E+02</wgt>
<wgt id='6018'>0.79598E+02</wgt>
<wgt id='6019'>0.79913E+02</wgt>
<wgt id='6020'>0.80011E+02</wgt>
<wgt id='6021'>0.79876E+02</wgt>
<wgt id='6022'>0.79949E+02</wgt>
<wgt id='6023'>0.79879E+02</wgt>
<wgt id='6024'>0.79950E+02</wgt>
<wgt id='6025'>0.80149E+02</wgt>
<wgt id='6026'>0.79856E+02</wgt>
<wgt id='6027'>0.79877E+02</wgt>
<wgt id='6028'>0.79682E+02</wgt>
<wgt id='6029'>0.79719E+02</wgt>
<wgt id='6030'>0.80048E+02</wgt>
<wgt id='6031'>0.79681E+02</wgt>
<wgt id='6032'>0.79890E+02</wgt>
<wgt id='6033'>0.79746E+02</wgt>
<wgt id='6034'>0.80125E+02</wgt>
<wgt id='6035'>0.79920E+02</wgt>
<wgt id='6036'>0.80382E+02</wgt>
<wgt id='6037'>0.79878E+02</wgt>
<wgt id='6038'>0.79909E+02</wgt>
<wgt id='6039'>0.80030E+02</wgt>
<wgt id='6040'>0.79850E+02</wgt>
<wgt id='6041'>0.78284E+02</wgt>
<wgt id='6042'>0.80391E+02</wgt>
<wgt id='7000'>0.79396E+02</wgt>
<wgt id='7001'>0.78531E+02</wgt>
<wgt id='7002'>0.78707E+02</wgt>
<wgt id='7003'>0.78586E+02</wgt>
<wgt id='7004'>0.78652E+02</wgt>
<wgt id='7005'>0.78709E+02</wgt>
<wgt id='7006'>0.78529E+02</wgt>
<wgt id='7007'>0.79125E+02</wgt>
<wgt id='7008'>0.78128E+02</wgt>
<wgt id='7009'>0.78252E+02</wgt>
<wgt id='7010'>0.78999E+02</wgt>
<wgt id='7011'>0.78894E+02</wgt>
<wgt id='7012'>0.78348E+02</wgt>
<wgt id='7013'>0.78512E+02</wgt>
<wgt id='7014'>0.78718E+02</wgt>
<wgt id='7015'>0.78570E+02</wgt>
<wgt id='7016'>0.78439E+02</wgt>
<wgt id='7017'>0.78636E+02</wgt>
<wgt id='7018'>0.78608E+02</wgt>
<wgt id='7019'>0.78531E+02</wgt>
<wgt id='7020'>0.78719E+02</wgt>
<wgt id='7021'>0.78922E+02</wgt>
<wgt id='7022'>0.78315E+02</wgt>
<wgt id='7023'>0.78169E+02</wgt>
<wgt id='7024'>0.79083E+02</wgt>
<wgt id='7025'>0.77546E+02</wgt>
<wgt id='7026'>0.79638E+02</wgt>
<wgt id='7027'>0.78172E+02</wgt>
<wgt id='7028'>0.79117E+02</wgt>
<wgt id='8000'>0.79847E+02</wgt>
<wgt id='8001'>0.79839E+02</wgt>
<wgt id='8002'>0.79872E+02</wgt>
<wgt id='8003'>0.79849E+02</wgt>
<wgt id='8004'>0.79845E+02</wgt>
<wgt id='8005'>0.79703E+02</wgt>
<wgt id='8006'>0.79943E+02</wgt>
<wgt id='8007'>0.80031E+02</wgt>
<wgt id='8008'>0.80030E+02</wgt>
<wgt id='8009'>0.80186E+02</wgt>
<wgt id='8010'>0.79751E+02</wgt>
<wgt id='8011'>0.79869E+02</wgt>
<wgt id='8012'>0.79532E+02</wgt>
<wgt id='8013'>0.79674E+02</wgt>
<wgt id='8014'>0.80061E+02</wgt>
<wgt id='8015'>0.79802E+02</wgt>
<wgt id='8016'>0.79932E+02</wgt>
<wgt id='8017'>0.79903E+02</wgt>
<wgt id='8018'>0.80071E+02</wgt>
<wgt id='8019'>0.79884E+02</wgt>
<wgt id='8020'>0.79843E+02</wgt>
<wgt id='8021'>0.79768E+02</wgt>
<wgt id='8022'>0.79832E+02</wgt>
<wgt id='8023'>0.79736E+02</wgt>
<wgt id='8024'>0.79553E+02</wgt>
<wgt id='8025'>0.79761E+02</wgt>
<wgt id='8026'>0.79942E+02</wgt>
<wgt id='8027'>0.79919E+02</wgt>
<wgt id='8028'>0.79901E+02</wgt>
<wgt id='8029'>0.79896E+02</wgt>
<wgt id='3000'>0.81104E+02</wgt>
<wgt id='3001'>0.81281E+02</wgt>
<wgt id='3002'>0.79890E+02</wgt>
<wgt id='3003'>0.80157E+02</wgt>
<wgt id='3004'>0.82072E+02</wgt>
<wgt id='3005'>0.81179E+02</wgt>
<wgt id='3006'>0.83157E+02</wgt>
<wgt id='3007'>0.80626E+02</wgt>
<wgt id='3008'>0.80358E+02</wgt>
<wgt id='3009'>0.81303E+02</wgt>
<wgt id='3010'>0.82899E+02</wgt>
<wgt id='3011'>0.81441E+02</wgt>
<wgt id='3012'>0.82019E+02</wgt>
<wgt id='3013'>0.80274E+02</wgt>
<wgt id='3014'>0.80905E+02</wgt>
<wgt id='3015'>0.80523E+02</wgt>
<wgt id='3016'>0.81667E+02</wgt>
<wgt id='3017'>0.82712E+02</wgt>
<wgt id='3018'>0.81125E+02</wgt>
<wgt id='3019'>0.79302E+02</wgt>
<wgt id='3020'>0.80148E+02</wgt>
<wgt id='3021'>0.79546E+02</wgt>
<wgt id='3022'>0.78911E+02</wgt>
<wgt id='3023'>0.79530E+02</wgt>
<wgt id='3024'>0.80572E+02</wgt>
<wgt id='3025'>0.79997E+02</wgt>
<wgt id='3026'>0.80270E+02</wgt>
<wgt id='3027'>0.79552E+02</wgt>
<wgt id='3028'>0.80278E+02</wgt>
<wgt id='3029'>0.82259E+02</wgt>
<wgt id='3030'>0.82364E+02</wgt>
<wgt id='3031'>0.81549E+02</wgt>
<wgt id='3032'>0.82518E+02</wgt>
<wgt id='3033'>0.80437E+02</wgt>
<wgt id='3034'>0.82186E+02</wgt>
<wgt id='3035'>0.81054E+02</wgt>
<wgt id='3036'>0.80722E+02</wgt>
<wgt id='3037'>0.80087E+02</wgt>
<wgt id='3038'>0.80926E+02</wgt>
<wgt id='3039'>0.81198E+02</wgt>
<wgt id='3040'>0.81367E+02</wgt>
<wgt id='3041'>0.81489E+02</wgt>
<wgt id='3042'>0.81806E+02</wgt>
<wgt id='3043'>0.81618E+02</wgt>
<wgt id='3044'>0.81696E+02</wgt>
<wgt id='3045'>0.81416E+02</wgt>
<wgt id='3046'>0.81766E+02</wgt>
<wgt id='3047'>0.80088E+02</wgt>
<wgt id='3048'>0.80507E+02</wgt>
<wgt id='3049'>0.80557E+02</wgt>
<wgt id='3050'>0.81421E+02</wgt>
<wgt id='3051'>0.81213E+02</wgt>
<wgt id='3052'>0.79963E+02</wgt>
<wgt id='3053'>0.80835E+02</wgt>
<wgt id='3054'>0.80794E+02</wgt>
<wgt id='3055'>0.80377E+02</wgt>
<wgt id='3056'>0.81047E+02</wgt>
<wgt id='3057'>0.80303E+02</wgt>
<wgt id='3058'>0.80291E+02</wgt>
<wgt id='3059'>0.81911E+02</wgt>
<wgt id='3060'>0.81072E+02</wgt>
<wgt id='3061'>0.80828E+02</wgt>
<wgt id='3062'>0.80886E+02</wgt>
<wgt id='3063'>0.79601E+02</wgt>
<wgt id='3064'>0.81443E+02</wgt>
<wgt id='3065'>0.80312E+02</wgt>
<wgt id='3066'>0.81979E+02</wgt>
<wgt id='3067'>0.79947E+02</wgt>
<wgt id='3068'>0.81313E+02</wgt>
<wgt id='3069'>0.81255E+02</wgt>
<wgt id='3070'>0.80684E+02</wgt>
<wgt id='3071'>0.81471E+02</wgt>
<wgt id='3072'>0.79610E+02</wgt>
<wgt id='3073'>0.81886E+02</wgt>
<wgt id='3074'>0.81131E+02</wgt>
<wgt id='3075'>0.82382E+02</wgt>
<wgt id='3076'>0.82520E+02</wgt>
<wgt id='3077'>0.80882E+02</wgt>
<wgt id='3078'>0.80626E+02</wgt>
<wgt id='3079'>0.80810E+02</wgt>
<wgt id='3080'>0.82253E+02</wgt>
<wgt id='3081'>0.80475E+02</wgt>
<wgt id='3082'>0.81667E+02</wgt>
<wgt id='3083'>0.81677E+02</wgt>
<wgt id='3084'>0.80939E+02</wgt>
<wgt id='3085'>0.80649E+02</wgt>
<wgt id='3086'>0.81102E+02</wgt>
<wgt id='3087'>0.81371E+02</wgt>
<wgt id='3088'>0.83001E+02</wgt>
<wgt id='3089'>0.84036E+02</wgt>
<wgt id='3090'>0.82241E+02</wgt>
<wgt id='3091'>0.80951E+02</wgt>
<wgt id='3092'>0.82186E+02</wgt>
<wgt id='3093'>0.81517E+02</wgt>
<wgt id='3094'>0.81526E+02</wgt>
<wgt id='3095'>0.81797E+02</wgt>
<wgt id='3096'>0.80272E+02</wgt>
<wgt id='3097'>0.81616E+02</wgt>
<wgt id='3098'>0.82127E+02</wgt>
<wgt id='3099'>0.80142E+02</wgt>
<wgt id='3100'>0.80520E+02</wgt>
<wgt id='3200'>0.78188E+02</wgt>
<wgt id='3201'>0.78816E+02</wgt>
<wgt id='3202'>0.76934E+02</wgt>
<wgt id='3203'>0.78476E+02</wgt>
<wgt id='3204'>0.77418E+02</wgt>
<wgt id='3205'>0.78802E+02</wgt>
<wgt id='3206'>0.78906E+02</wgt>
<wgt id='3207'>0.79126E+02</wgt>
<wgt id='3208'>0.78745E+02</wgt>
<wgt id='3209'>0.77973E+02</wgt>
<wgt id='3210'>0.78153E+02</wgt>
<wgt id='3211'>0.78681E+02</wgt>
<wgt id='3212'>0.77443E+02</wgt>
<wgt id='3213'>0.78181E+02</wgt>
<wgt id='3214'>0.77905E+02</wgt>
<wgt id='3215'>0.78286E+02</wgt>
<wgt id='3216'>0.79181E+02</wgt>
<wgt id='3217'>0.78500E+02</wgt>
<wgt id='3218'>0.78395E+02</wgt>
<wgt id='3219'>0.77941E+02</wgt>
<wgt id='3220'>0.77785E+02</wgt>
<wgt id='3221'>0.78778E+02</wgt>
<wgt id='3222'>0.79507E+02</wgt>
<wgt id='3223'>0.78185E+02</wgt>
<wgt id='3224'>0.78080E+02</wgt>
<wgt id='3225'>0.78965E+02</wgt>
<wgt id='3226'>0.78326E+02</wgt>
<wgt id='3227'>0.77626E+02</wgt>
<wgt id='3228'>0.77478E+02</wgt>
<wgt id='3229'>0.78678E+02</wgt>
<wgt id='3230'>0.78676E+02</wgt>
<wgt id='3231'>0.78386E+02</wgt>
<wgt id='3232'>0.78532E+02</wgt>
<wgt id='3233'>0.78942E+02</wgt>
<wgt id='3234'>0.77795E+02</wgt>
<wgt id='3235'>0.77775E+02</wgt>
<wgt id='3236'>0.77344E+02</wgt>
<wgt id='3237'>0.78026E+02</wgt>
<wgt id='3238'>0.77729E+02</wgt>
<wgt id='3239'>0.77797E+02</wgt>
<wgt id='3240'>0.77562E+02</wgt>
<wgt id='3241'>0.78976E+02</wgt>
<wgt id='3242'>0.77718E+02</wgt>
<wgt id='3243'>0.77358E+02</wgt>
<wgt id='3244'>0.77936E+02</wgt>
<wgt id='3245'>0.78445E+02</wgt>
<wgt id='3246'>0.77197E+02</wgt>
<wgt id='3247'>0.78368E+02</wgt>
<wgt id='3248'>0.77873E+02</wgt>
<wgt id='3249'>0.77453E+02</wgt>
<wgt id='3250'>0.78465E+02</wgt>
<wgt id='3251'>0.78011E+02</wgt>
<wgt id='3252'>0.78524E+02</wgt>
<wgt id='3253'>0.77884E+02</wgt>
<wgt id='3254'>0.77798E+02</wgt>
<wgt id='3255'>0.77975E+02</wgt>
<wgt id='3256'>0.78105E+02</wgt>
<wgt id='3257'>0.77980E+02</wgt>
<wgt id='3258'>0.78316E+02</wgt>
<wgt id='3259'>0.78236E+02</wgt>
<wgt id='3260'>0.78454E+02</wgt>
<wgt id='3261'>0.78738E+02</wgt>
<wgt id='3262'>0.78074E+02</wgt>
<wgt id='3263'>0.79229E+02</wgt>
<wgt id='3264'>0.78157E+02</wgt>
<wgt id='3265'>0.78148E+02</wgt>
<wgt id='3266'>0.78026E+02</wgt>
<wgt id='3267'>0.77891E+02</wgt>
<wgt id='3268'>0.78465E+02</wgt>
<wgt id='3269'>0.78357E+02</wgt>
<wgt id='3270'>0.78456E+02</wgt>
<wgt id='3271'>0.78403E+02</wgt>
<wgt id='3272'>0.78622E+02</wgt>
<wgt id='3273'>0.78001E+02</wgt>
<wgt id='3274'>0.78104E+02</wgt>
<wgt id='3275'>0.78545E+02</wgt>
<wgt id='3276'>0.77525E+02</wgt>
<wgt id='3277'>0.77583E+02</wgt>
<wgt id='3278'>0.78152E+02</wgt>
<wgt id='3279'>0.78891E+02</wgt>
<wgt id='3280'>0.78043E+02</wgt>
<wgt id='3281'>0.78522E+02</wgt>
<wgt id='3282'>0.78457E+02</wgt>
<wgt id='3283'>0.78490E+02</wgt>
<wgt id='3284'>0.78381E+02</wgt>
<wgt id='3285'>0.77611E+02</wgt>
<wgt id='3286'>0.77613E+02</wgt>
<wgt id='3287'>0.78078E+02</wgt>
<wgt id='3288'>0.78341E+02</wgt>
<wgt id='3289'>0.79149E+02</wgt>
<wgt id='3290'>0.78949E+02</wgt>
<wgt id='3291'>0.76723E+02</wgt>
<wgt id='3292'>0.77450E+02</wgt>
<wgt id='3293'>0.78153E+02</wgt>
<wgt id='3294'>0.76909E+02</wgt>
<wgt id='3295'>0.77760E+02</wgt>
<wgt id='3296'>0.79384E+02</wgt>
<wgt id='3297'>0.77849E+02</wgt>
<wgt id='3298'>0.77895E+02</wgt>
<wgt id='3299'>0.77962E+02</wgt>
<wgt id='3300'>0.78852E+02</wgt>
<wgt id='3301'>0.76729E+02</wgt>
<wgt id='3302'>0.79458E+02</wgt>
<wgt id='3400'>0.78357E+02</wgt>
<wgt id='3401'>0.78437E+02</wgt>
<wgt id='3402'>0.77566E+02</wgt>
<wgt id='3403'>0.79049E+02</wgt>
<wgt id='3404'>0.79484E+02</wgt>
<wgt id='3405'>0.79167E+02</wgt>
<wgt id='3406'>0.78557E+02</wgt>
<wgt id='3407'>0.77818E+02</wgt>
<wgt id='3408'>0.79577E+02</wgt>
<wgt id='3409'>0.79506E+02</wgt>
<wgt id='3410'>0.78890E+02</wgt>
<wgt id='3411'>0.78934E+02</wgt>
<wgt id='3412'>0.78936E+02</wgt>
<wgt id='3413'>0.78240E+02</wgt>
<wgt id='3414'>0.78101E+02</wgt>
<wgt id='3415'>0.78294E+02</wgt>
<wgt id='3416'>0.77993E+02</wgt>
<wgt id='3417'>0.78169E+02</wgt>
<wgt id='3418'>0.77764E+02</wgt>
<wgt id='3419'>0.77697E+02</wgt>
<wgt id='3420'>0.78480E+02</wgt>
<wgt id='3421'>0.78661E+02</wgt>
<wgt id='3422'>0.78507E+02</wgt>
<wgt id='3423'>0.79056E+02</wgt>
<wgt id='3424'>0.78797E+02</wgt>
<wgt id='3425'>0.78419E+02</wgt>
<wgt id='3426'>0.78262E+02</wgt>
<wgt id='3427'>0.78327E+02</wgt>
<wgt id='3428'>0.78904E+02</wgt>
<wgt id='3429'>0.77731E+02</wgt>
<wgt id='3430'>0.78445E+02</wgt>
<wgt id='3431'>0.78215E+02</wgt>
<wgt id='3432'>0.78151E+02</wgt>
<wgt id='3433'>0.77353E+02</wgt>
<wgt id='3434'>0.78700E+02</wgt>
<wgt id='3435'>0.78915E+02</wgt>
<wgt id='3436'>0.78230E+02</wgt>
<wgt id='3437'>0.78219E+02</wgt>
<wgt id='3438'>0.77606E+02</wgt>
<wgt id='3439'>0.78510E+02</wgt>
<wgt id='3440'>0.78563E+02</wgt>
<wgt id='3441'>0.78372E+02</wgt>
<wgt id='3442'>0.77205E+02</wgt>
<wgt id='3443'>0.78346E+02</wgt>
<wgt id='3444'>0.78227E+02</wgt>
<wgt id='3445'>0.78012E+02</wgt>
<wgt id='3446'>0.79046E+02</wgt>
<wgt id='3447'>0.79162E+02</wgt>
<wgt id='3448'>0.79077E+02</wgt>
<wgt id='3449'>0.79263E+02</wgt>
<wgt id='3450'>0.78457E+02</wgt>
<wgt id='3451'>0.78957E+02</wgt>
<wgt id='3452'>0.78086E+02</wgt>
<wgt id='3453'>0.77364E+02</wgt>
<wgt id='3454'>0.77780E+02</wgt>
<wgt id='3455'>0.79224E+02</wgt>
<wgt id='3456'>0.78539E+02</wgt>
<wgt id='3457'>0.79592E+02</wgt>
<wgt id='3458'>0.78547E+02</wgt>
<wgt id='3459'>0.78303E+02</wgt>
<wgt id='3460'>0.78253E+02</wgt>
<wgt id='3461'>0.77719E+02</wgt>
<wgt id='3462'>0.78287E+02</wgt>
<wgt id='3463'>0.77616E+02</wgt>
<wgt id='3464'>0.78670E+02</wgt>
<wgt id='3465'>0.78621E+02</wgt>
<wgt id='3466'>0.78833E+02</wgt>
<wgt id='3467'>0.77975E+02</wgt>
<wgt id='3468'>0.78027E+02</wgt>
<wgt id='3469'>0.78336E+02</wgt>
<wgt id='3470'>0.78077E+02</wgt>
<wgt id='3471'>0.78100E+02</wgt>
<wgt id='3472'>0.77565E+02</wgt>
<wgt id='3473'>0.78927E+02</wgt>
<wgt id='3474'>0.78288E+02</wgt>
<wgt id='3475'>0.78477E+02</wgt>
<wgt id='3476'>0.78180E+02</wgt>
<wgt id='3477'>0.77874E+02</wgt>
<wgt id='3478'>0.79254E+02</wgt>
<wgt id='3479'>0.78594E+02</wgt>
<wgt id='3480'>0.77897E+02</wgt>
<wgt id='3481'>0.78365E+02</wgt>
<wgt id='3482'>0.78532E+02</wgt>
<wgt id='3483'>0.77481E+02</wgt>
<wgt id='3484'>0.78277E+02</wgt>
<wgt id='3485'>0.77941E+02</wgt>
<wgt id='3486'>0.77074E+02</wgt>
<wgt id='3487'>0.78776E+02</wgt>
<wgt id='3488'>0.78629E+02</wgt>
<wgt id='3489'>0.77598E+02</wgt>
<wgt id='3490'>0.79234E+02</wgt>
<wgt id='3491'>0.78263E+02</wgt>
<wgt id='3492'>0.78528E+02</wgt>
<wgt id='3493'>0.77935E+02</wgt>
<wgt id='3494'>0.76235E+02</wgt>
<wgt id='3495'>0.78556E+02</wgt>
<wgt id='3496'>0.77471E+02</wgt>
<wgt id='3497'>0.77969E+02</wgt>
<wgt id='3498'>0.78466E+02</wgt>
<wgt id='3499'>0.78217E+02</wgt>
<wgt id='3500'>0.78770E+02</wgt>
</rwgt>
</event>
<event>
     13 322200  8.11039E+01  1.91050E+01 -1.00000E+00  1.65072E-01
      21    -1     0     0   504   505  0.000000000E+00  0.000000000E+00  1.266899406E+03  1.266899406E+03  0.000000000E+00  0.00000E+00  9.000E+00
      21    -1     0     0   502   503  0.000000000E+00  0.000000000E+00 -5.529834343E+01  5.529834343E+01  0.000000000E+00  0.00000E+00  9.000E+00
       6     2     1     2   502     0  1.323944649E+02  2.144276788E+01  2.692735255E+02  3.481385209E+02  1.752258872E+02  0.00000E+00  9.000E+00
      -6     2     1     2     0   505 -1.222003296E+02 -3.760072872E+01  9.191336008E+02  9.440099561E+02  1.732093697E+02  0.00000E+00  9.000E+00
      21     1     1     2   504   503 -1.019413532E+01  1.615796084E+01  2.319393613E+01  3.004927231E+01  4.768371582E-07  0.00000E+00  9.000E+00
      24     2     3     3     0     0  3.376444672E+01 -1.088001976E+01  3.917144371E+01  9.566037382E+01  7.973764748E+01  0.00000E+00  9.000E+00
       5     1     3     3   502     0  9.863001820E+01  3.232278764E+01  2.301020818E+02  2.524781471E+02  5.060000000E+00  0.00000E+00 -1.000E+00
     -24     2     4     4     0     0 -3.539228548E+01  3.814015799E+01  3.134340046E+02  3.274307455E+02  7.913742716E+01  0.00000E+00  9.000E+00
      -5     1     4     4     0   505 -8.680804412E+01 -7.574088671E+01  6.056995962E+02  6.165792105E+02  5.060000000E+00  0.00000E+00  1.000E+00
     -11     1     6     6     0     0  3.611901894E+01  1.209902963E+01  5.554149306E+01  6.734855231E+01  5.100000000E-04  0.00000E+00  1.000E+00
      12     1     6     6     0     0 -2.354572219E+00 -2.297904939E+01 -1.637004935E+01  2.831182151E+01  0.000000000E+00  0.00000E+00 -1.000E+00
      11     1     8     8     0     0 -5.870788041E+01  2.659610907E+01  1.731870592E+02  1.847910326E+02  5.100000000E-04  0.00000E+00 -1.000E+00
     -12     1     8     8     0     0  2.331559493E+01  1.154404892E+01  1.402469454E+02  1.426397130E+02  0.000000000E+00  0.00000E+00  1.000E+00
#rwgt            1           1   539.76911789302301               10       24787           0
<rwgt>
<wgt id='1001'>0.81104E+02</wgt>
<wgt id='1002'>0.85898E+02</wgt>
<wgt id='1003'>0.75379E+02</wgt>
<wgt id='1004'>0.70390E+02</wgt>
<wgt id='1005'>0.73551E+02</wgt>
<wgt id='1006'>0.66545E+02</wgt>
<wgt id='1007'>0.94368E+02</wgt>
<wgt id='1008'>0.10168E+03</wgt>
<wgt id='1009'>0.85761E+02</wgt>
<wgt id='2000'>0.81104E+02</wgt>
<wgt id='2001'>0.80997E+02</wgt>
<wgt id='2002'>0.81064E+02</wgt>
<wgt id='2003'>0.81016E+02</wgt>
<wgt id='2004'>0.81529E+02</wgt>
<wgt id='2005'>0.80756E+02</wgt>
<wgt id='2006'>0.81287E+02</wgt>
<wgt id='2007'>0.81239E+02</wgt>
<wgt id='2008'>0.81120E+02</wgt>
<wgt id='2009'>0.81350E+02</wgt>
<wgt id='2010'>0.81036E+02</wgt>
<wgt id='2011'>0.81141E+02</wgt>
<wgt id='2012'>0.81456E+02</wgt>
<wgt id='2013'>0.81024E+02</wgt>
<wgt id='2014'>0.81150E+02</wgt>
<wgt id='2015'>0.81263E+02</wgt>
<wgt id='2016'>0.80968E+02</wgt>
<wgt id='2017'>0.81025E+02</wgt>
<wgt id='2018'>0.80726E+02</wgt>
<wgt id='2019'>0.80785E+02</wgt>
<wgt id='2020'>0.80727E+02</wgt>
<wgt id='2021'>0.81191E+02</wgt>
<wgt id='2022'>0.81023E+02</wgt>
<wgt id='2023'>0.80987E+02</wgt>
<wgt id='2024'>0.80528E+02</wgt>
<wgt id='2025'>0.81398E+02</wgt>
<wgt id='2026'>0.81261E+02</wgt>
<wgt id='2027'>0.81660E+02</wgt>
<wgt id='2028'>0.80459E+02</wgt>
<wgt id='2029'>0.80782E+02</wgt>
<wgt id='2030'>0.81228E+02</wgt>
<wgt id='2031'>0.80739E+02</wgt>
<wgt id='2032'>0.81020E+02</wgt>
<wgt id='2033'>0.80894E+02</wgt>
<wgt id='2034'>0.80755E+02</wgt>
<wgt id='2035'>0.81107E+02</wgt>
<wgt id='2036'>0.81201E+02</wgt>
<wgt id='2037'>0.80895E+02</wgt>
<wgt id='2038'>0.81033E+02</wgt>
<wgt id='2039'>0.80957E+02</wgt>
<wgt id='2040'>0.80927E+02</wgt>
<wgt id='2041'>0.80942E+02</wgt>
<wgt id='2042'>0.81293E+02</wgt>
<wgt id='2043'>0.81108E+02</wgt>
<wgt id='2044'>0.81235E+02</wgt>
<wgt id='2045'>0.81109E+02</wgt>
<wgt id='2046'>0.81007E+02</wgt>
<wgt id='2047'>0.81150E+02</wgt>
<wgt id='2048'>0.81100E+02</wgt>
<wgt id='2049'>0.81020E+02</wgt>
<wgt id='2050'>0.80977E+02</wgt>
<wgt id='2051'>0.81002E+02</wgt>
<wgt id='2052'>0.81288E+02</wgt>
<wgt id='2053'>0.81115E+02</wgt>
<wgt id='2054'>0.81077E+02</wgt>
<wgt id='2055'>0.81018E+02</wgt>
<wgt id='2056'>0.81043E+02</wgt>
<wgt id='2057'>0.81149E+02</wgt>
<wgt id='2058'>0.81176E+02</wgt>
<wgt id='2059'>0.81116E+02</wgt>
<wgt id='2060'>0.81057E+02</wgt>
<wgt id='2061'>0.81029E+02</wgt>
<wgt id='2062'>0.81219E+02</wgt>
<wgt id='2063'>0.81111E+02</wgt>
<wgt id='2064'>0.81110E+02</wgt>
<wgt id='2065'>0.81200E+02</wgt>
<wgt id='2066'>0.81063E+02</wgt>
<wgt id='2067'>0.81046E+02</wgt>
<wgt id='2068'>0.81201E+02</wgt>
<wgt id='2069'>0.81094E+02</wgt>
<wgt id='2070'>0.81134E+02</wgt>
<wgt id='2071'>0.81054E+02</wgt>
<wgt id='2072'>0.81063E+02</wgt>
<wgt id='2073'>0.81140E+02</wgt>
<wgt id='2074'>0.81071E+02</wgt>
<wgt id='2075'>0.81094E+02</wgt>
<wgt id='2076'>0.81097E+02</wgt>
<wgt id='2077'>0.81170E+02</wgt>
<wgt id='2078'>0.81119E+02</wgt>
<wgt id='2079'>0.81070E+02</wgt>
<wgt id='2080'>0.81116E+02</wgt>
<wgt id='2081'>0.81082E+02</wgt>
<wgt id='2082'>0.81114E+02</wgt>
<wgt id='2083'>0.81189E+02</wgt>
<wgt id='2084'>0.81099E+02</wgt>
<wgt id='2085'>0.81127E+02</wgt>
<wgt id='2086'>0.81088E+02</wgt>
<wgt id='2087'>0.81120E+02</wgt>
<wgt id='2088'>0.81090E+02</wgt>
<wgt id='2089'>0.81076E+02</wgt>
<wgt id='2090'>0.81132E+02</wgt>
<wgt id='2091'>0.81121E+02</wgt>
<wgt id='2092'>0.81156E+02</wgt>
<wgt id='2093'>0.81062E+02</wgt>
<wgt id='2094'>0.81100E+02</wgt>
<wgt id='2095'>0.81139E+02</wgt>
<wgt id='2096'>0.81079E+02</wgt>
<wgt id='2097'>0.81132E+02</wgt>
<wgt id='2098'>0.81112E+02</wgt>
<wgt id='2099'>0.81125E+02</wgt>
<wgt id='2100'>0.81104E+02</wgt>
<wgt id='2101'>0.79005E+02</wgt>
<wgt id='2102'>0.82916E+02</wgt>
<wgt id='2200'>0.80764E+02</wgt>
<wgt id='2201'>0.70453E+02</wgt>
<wgt id='2202'>0.72515E+02</wgt>
<wgt id='2203'>0.74910E+02</wgt>
<wgt id='2204'>0.76401E+02</wgt>
<wgt id='2205'>0.79607E+02</wgt>
<wgt id='2206'>0.82167E+02</wgt>
<wgt id='2207'>0.85085E+02</wgt>
<wgt id='2208'>0.87918E+02</wgt>
<wgt id='2300'>0.87001E+02</wgt>
<wgt id='2301'>0.87073E+02</wgt>
<wgt id='2302'>0.86978E+02</wgt>
<wgt id='2303'>0.86961E+02</wgt>
<wgt id='2304'>0.87317E+02</wgt>
<wgt id='2305'>0.87037E+02</wgt>
<wgt id='2306'>0.86972E+02</wgt>
<wgt id='2307'>0.86987E+02</wgt>
<wgt id='2308'>0.86839E+02</wgt>
<wgt id='2309'>0.86862E+02</wgt>
<wgt id='2310'>0.86692E+02</wgt>
<wgt id='2311'>0.87047E+02</wgt>
<wgt id='2312'>0.87205E+02</wgt>
<wgt id='2313'>0.87019E+02</wgt>
<wgt id='2314'>0.86968E+02</wgt>
<wgt id='2315'>0.86969E+02</wgt>
<wgt id='2316'>0.87116E+02</wgt>
<wgt id='2317'>0.87002E+02</wgt>
<wgt id='2318'>0.87129E+02</wgt>
<wgt id='2319'>0.86961E+02</wgt>
<wgt id='2320'>0.87072E+02</wgt>
<wgt id='2321'>0.87067E+02</wgt>
<wgt id='2322'>0.86891E+02</wgt>
<wgt id='2323'>0.86831E+02</wgt>
<wgt id='2324'>0.86932E+02</wgt>
<wgt id='2325'>0.87053E+02</wgt>
<wgt id='2326'>0.86964E+02</wgt>
<wgt id='2327'>0.87075E+02</wgt>
<wgt id='2328'>0.86842E+02</wgt>
<wgt id='2329'>0.87004E+02</wgt>
<wgt id='2330'>0.87414E+02</wgt>
<wgt id='2331'>0.87108E+02</wgt>
<wgt id='2332'>0.86814E+02</wgt>
<wgt id='2333'>0.86820E+02</wgt>
<wgt id='2334'>0.87027E+02</wgt>
<wgt id='2335'>0.86244E+02</wgt>
<wgt id='2336'>0.86973E+02</wgt>
<wgt id='2337'>0.87447E+02</wgt>
<wgt id='2338'>0.86987E+02</wgt>
<wgt id='2339'>0.86806E+02</wgt>
<wgt id='2340'>0.87500E+02</wgt>
<wgt id='2341'>0.87314E+02</wgt>
<wgt id='2342'>0.86823E+02</wgt>
<wgt id='2343'>0.86814E+02</wgt>
<wgt id='2344'>0.86947E+02</wgt>
<wgt id='2345'>0.86910E+02</wgt>
<wgt id='2346'>0.87528E+02</wgt>
<wgt id='2347'>0.87053E+02</wgt>
<wgt id='2348'>0.87012E+02</wgt>
<wgt id='2349'>0.87037E+02</wgt>
<wgt id='2350'>0.86612E+02</wgt>
<wgt id='2351'>0.87135E+02</wgt>
<wgt id='2352'>0.86746E+02</wgt>
<wgt id='2353'>0.87071E+02</wgt>
<wgt id='2354'>0.87142E+02</wgt>
<wgt id='2355'>0.86681E+02</wgt>
<wgt id='2356'>0.86911E+02</wgt>
<wgt id='2357'>0.87074E+02</wgt>
<wgt id='2358'>0.86822E+02</wgt>
<wgt id='2359'>0.86942E+02</wgt>
<wgt id='2360'>0.87203E+02</wgt>
<wgt id='2361'>0.87056E+02</wgt>
<wgt id='2362'>0.87124E+02</wgt>
<wgt id='2363'>0.86859E+02</wgt>
<wgt id='2364'>0.87025E+02</wgt>
<wgt id='2365'>0.86849E+02</wgt>
<wgt id='2366'>0.87037E+02</wgt>
<wgt id='2367'>0.86764E+02</wgt>
<wgt id='2368'>0.87038E+02</wgt>
<wgt id='2369'>0.86916E+02</wgt>
<wgt id='2370'>0.86945E+02</wgt>
<wgt id='2371'>0.86921E+02</wgt>
<wgt id='2372'>0.87077E+02</wgt>
<wgt id='2373'>0.87000E+02</wgt>
<wgt id='2374'>0.87119E+02</wgt>
<wgt id='2375'>0.87076E+02</wgt>
<wgt id='2376'>0.87056E+02</wgt>
<wgt id='2377'>0.87006E+02</wgt>
<wgt id='2378'>0.87067E+02</wgt>
<wgt id='2379'>0.86897E+02</wgt>
<wgt id='2380'>0.86943E+02</wgt>
<wgt id='2381'>0.86968E+02</wgt>
<wgt id='2382'>0.86931E+02</wgt>
<wgt id='2383'>0.86970E+02</wgt>
<wgt id='2384'>0.86956E+02</wgt>
<wgt id='2385'>0.87039E+02</wgt>
<wgt id='2386'>0.87010E+02</wgt>
<wgt id='2387'>0.86916E+02</wgt>
<wgt id='2388'>0.86933E+02</wgt>
<wgt id='2389'>0.86972E+02</wgt>
<wgt id='2390'>0.86972E+02</wgt>
<wgt id='2391'>0.86942E+02</wgt>
<wgt id='2392'>0.87008E+02</wgt>
<wgt id='2393'>0.87022E+02</wgt>
<wgt id='2394'>0.87016E+02</wgt>
<wgt id='2395'>0.87026E+02</wgt>
<wgt id='2396'>0.86974E+02</wgt>
<wgt id='2397'>0.86981E+02</wgt>
<wgt id='2398'>0.86991E+02</wgt>
<wgt id='2399'>0.87028E+02</wgt>
<wgt id='2400'>0.87028E+02</wgt>
<wgt id='2401'>0.85063E+02</wgt>
<wgt id='2402'>0.89455E+02</wgt>
<wgt id='2500'>0.83170E+02</wgt>
<wgt id='2501'>0.88163E+02</wgt>
<wgt id='2600'>0.79160E+02</wgt>
<wgt id='2601'>0.78868E+02</wgt>
<wgt id='2602'>0.79275E+02</wgt>
<wgt id='2603'>0.79150E+02</wgt>
<wgt id='2604'>0.79251E+02</wgt>
<wgt id='2605'>0.79055E+02</wgt>
<wgt id='2606'>0.79255E+02</wgt>
<wgt id='2607'>0.79249E+02</wgt>
<wgt id='2608'>0.79311E+02</wgt>
<wgt id='2609'>0.79074E+02</wgt>
<wgt id='2610'>0.79091E+02</wgt>
<wgt id='2611'>0.79151E+02</wgt>
<wgt id='2612'>0.79136E+02</wgt>
<wgt id='2613'>0.79199E+02</wgt>
<wgt id='2614'>0.79067E+02</wgt>
<wgt id='2615'>0.79007E+02</wgt>
<wgt id='2616'>0.79250E+02</wgt>
<wgt id='2617'>0.78955E+02</wgt>
<wgt id='2618'>0.79262E+02</wgt>
<wgt id='2619'>0.79253E+02</wgt>
<wgt id='2620'>0.78924E+02</wgt>
<wgt id='2621'>0.79314E+02</wgt>
<wgt id='2622'>0.79486E+02</wgt>
<wgt id='2623'>0.79114E+02</wgt>
<wgt id='2624'>0.79075E+02</wgt>
<wgt id='2625'>0.79374E+02</wgt>
<wgt id='2626'>0.79256E+02</wgt>
<wgt id='2627'>0.79315E+02</wgt>
<wgt id='2628'>0.79079E+02</wgt>
<wgt id='2629'>0.79300E+02</wgt>
<wgt id='2630'>0.79451E+02</wgt>
<wgt id='2631'>0.79099E+02</wgt>
<wgt id='2632'>0.78870E+02</wgt>
<wgt id='2633'>0.79087E+02</wgt>
<wgt id='2634'>0.79064E+02</wgt>
<wgt id='2635'>0.78930E+02</wgt>
<wgt id='2636'>0.79243E+02</wgt>
<wgt id='2637'>0.79119E+02</wgt>
<wgt id='2638'>0.79072E+02</wgt>
<wgt id='2639'>0.79171E+02</wgt>
<wgt id='2640'>0.79159E+02</wgt>
<wgt id='2641'>0.79054E+02</wgt>
<wgt id='2642'>0.79147E+02</wgt>
<wgt id='2643'>0.79086E+02</wgt>
<wgt id='2644'>0.79151E+02</wgt>
<wgt id='2645'>0.79101E+02</wgt>
<wgt id='2646'>0.79134E+02</wgt>
<wgt id='2647'>0.79154E+02</wgt>
<wgt id='2648'>0.79160E+02</wgt>
<wgt id='2649'>0.79187E+02</wgt>
<wgt id='2650'>0.79186E+02</wgt>
<wgt id='2651'>0.77716E+02</wgt>
<wgt id='2652'>0.80198E+02</wgt>
<wgt id='2700'>0.76492E+02</wgt>
<wgt id='2701'>0.77716E+02</wgt>
<wgt id='2702'>0.78468E+02</wgt>
<wgt id='2703'>0.79839E+02</wgt>
<wgt id='2704'>0.80198E+02</wgt>
<wgt id='2705'>0.81762E+02</wgt>
<wgt id='2800'>0.81521E+02</wgt>
<wgt id='4000'>0.84254E+02</wgt>
<wgt id='4001'>0.84435E+02</wgt>
<wgt id='4002'>0.84271E+02</wgt>
<wgt id='4003'>0.83011E+02</wgt>
<wgt id='4004'>0.85827E+02</wgt>
<wgt id='4005'>0.84814E+02</wgt>
<wgt id='4006'>0.83949E+02</wgt>
<wgt id='4007'>0.84457E+02</wgt>
<wgt id='4008'>0.84125E+02</wgt>
<wgt id='4009'>0.83517E+02</wgt>
<wgt id='4010'>0.84478E+02</wgt>
<wgt id='4011'>0.84934E+02</wgt>
<wgt id='4012'>0.83384E+02</wgt>
<wgt id='4013'>0.84325E+02</wgt>
<wgt id='4014'>0.84350E+02</wgt>
<wgt id='4015'>0.84903E+02</wgt>
<wgt id='4016'>0.85171E+02</wgt>
<wgt id='4017'>0.84388E+02</wgt>
<wgt id='4018'>0.84133E+02</wgt>
<wgt id='4019'>0.83945E+02</wgt>
<wgt id='4020'>0.84896E+02</wgt>
<wgt id='4021'>0.84613E+02</wgt>
<wgt id='4022'>0.83634E+02</wgt>
<wgt id='4023'>0.84815E+02</wgt>
<wgt id='4024'>0.84674E+02</wgt>
<wgt id='4025'>0.84058E+02</wgt>
<wgt id='4026'>0.84907E+02</wgt>
<wgt id='4027'>0.85424E+02</wgt>
<wgt id='4028'>0.83281E+02</wgt>
<wgt id='4029'>0.85807E+02</wgt>
<wgt id='4030'>0.83212E+02</wgt>
<wgt id='4031'>0.84275E+02</wgt>
<wgt id='4032'>0.86069E+02</wgt>
<wgt id='4033'>0.85189E+02</wgt>
<wgt id='4034'>0.83581E+02</wgt>
<wgt id='4035'>0.84326E+02</wgt>
<wgt id='4036'>0.84202E+02</wgt>
<wgt id='4037'>0.87483E+02</wgt>
<wgt id='4038'>0.81777E+02</wgt>
<wgt id='4039'>0.86100E+02</wgt>
<wgt id='4040'>0.82648E+02</wgt>
<wgt id='4041'>0.84888E+02</wgt>
<wgt id='4042'>0.83601E+02</wgt>
<wgt id='4043'>0.84314E+02</wgt>
<wgt id='4044'>0.83435E+02</wgt>
<wgt id='4045'>0.83931E+02</wgt>
<wgt id='4046'>0.84460E+02</wgt>
<wgt id='4047'>0.85032E+02</wgt>
<wgt id='4048'>0.84365E+02</wgt>
<wgt id='4049'>0.84305E+02</wgt>
<wgt id='4050'>0.84326E+02</wgt>
<wgt id='4051'>0.84065E+02</wgt>
<wgt id='4052'>0.84719E+02</wgt>
<wgt id='4053'>0.84008E+02</wgt>
<wgt id='4054'>0.83886E+02</wgt>
<wgt id='4055'>0.84748E+02</wgt>
<wgt id='4056'>0.83722E+02</wgt>
<wgt id='4057'>0.83564E+02</wgt>
<wgt id='4058'>0.84723E+02</wgt>
<wgt id='4100'>0.84575E+02</wgt>
<wgt id='4101'>0.84359E+02</wgt>
<wgt id='4102'>0.84232E+02</wgt>
<wgt id='4103'>0.84267E+02</wgt>
<wgt id='4200'>0.82544E+02</wgt>
<wgt id='4201'>0.82426E+02</wgt>
<wgt id='4202'>0.82805E+02</wgt>
<wgt id='4203'>0.82251E+02</wgt>
<wgt id='4204'>0.82603E+02</wgt>
<wgt id='4205'>0.82545E+02</wgt>
<wgt id='4206'>0.82741E+02</wgt>
<wgt id='4207'>0.83345E+02</wgt>
<wgt id='4208'>0.82076E+02</wgt>
<wgt id='4209'>0.82103E+02</wgt>
<wgt id='4210'>0.82846E+02</wgt>
<wgt id='4211'>0.82907E+02</wgt>
<wgt id='4212'>0.82268E+02</wgt>
<wgt id='4213'>0.82597E+02</wgt>
<wgt id='4214'>0.82444E+02</wgt>
<wgt id='4215'>0.82559E+02</wgt>
<wgt id='4216'>0.82851E+02</wgt>
<wgt id='4217'>0.82656E+02</wgt>
<wgt id='4218'>0.82390E+02</wgt>
<wgt id='4219'>0.82590E+02</wgt>
<wgt id='4220'>0.82587E+02</wgt>
<wgt id='4221'>0.82347E+02</wgt>
<wgt id='4222'>0.83103E+02</wgt>
<wgt id='4223'>0.81157E+02</wgt>
<wgt id='4224'>0.82575E+02</wgt>
<wgt id='4225'>0.81941E+02</wgt>
<wgt id='4226'>0.83616E+02</wgt>
<wgt id='4227'>0.83280E+02</wgt>
<wgt id='4228'>0.81923E+02</wgt>
<wgt id='4229'>0.81063E+02</wgt>
<wgt id='4230'>0.83866E+02</wgt>
<wgt id='4231'>0.83030E+02</wgt>
<wgt id='4232'>0.81771E+02</wgt>
<wgt id='4233'>0.82769E+02</wgt>
<wgt id='4234'>0.81665E+02</wgt>
<wgt id='4235'>0.83696E+02</wgt>
<wgt id='4236'>0.81359E+02</wgt>
<wgt id='4237'>0.84301E+02</wgt>
<wgt id='4238'>0.80089E+02</wgt>
<wgt id='4239'>0.82109E+02</wgt>
<wgt id='4240'>0.82897E+02</wgt>
<wgt id='4241'>0.82784E+02</wgt>
<wgt id='4242'>0.82273E+02</wgt>
<wgt id='4243'>0.83100E+02</wgt>
<wgt id='4244'>0.82052E+02</wgt>
<wgt id='4245'>0.82828E+02</wgt>
<wgt id='4246'>0.81781E+02</wgt>
<wgt id='4247'>0.81672E+02</wgt>
<wgt id='4248'>0.83038E+02</wgt>
<wgt id='4249'>0.83509E+02</wgt>
<wgt id='4250'>0.81396E+02</wgt>
<wgt id='4251'>0.84150E+02</wgt>
<wgt id='4252'>0.81502E+02</wgt>
<wgt id='4253'>0.83444E+02</wgt>
<wgt id='4254'>0.81336E+02</wgt>
<wgt id='4255'>0.84349E+02</wgt>
<wgt id='4256'>0.81700E+02</wgt>
<wgt id='4257'>0.81094E+02</wgt>
<wgt id='4258'>0.82966E+02</wgt>
<wgt id='4300'>0.83167E+02</wgt>
<wgt id='4301'>0.84452E+02</wgt>
<wgt id='5000'>0.83433E+02</wgt>
<wgt id='5001'>0.83476E+02</wgt>
<wgt id='5002'>0.83377E+02</wgt>
<wgt id='5003'>0.83452E+02</wgt>
<wgt id='5004'>0.83415E+02</wgt>
<wgt id='5005'>0.83438E+02</wgt>
<wgt id='5006'>0.83423E+02</wgt>
<wgt id='5007'>0.83534E+02</wgt>
<wgt id='5008'>0.83350E+02</wgt>
<wgt id='5009'>0.83525E+02</wgt>
<wgt id='5010'>0.83338E+02</wgt>
<wgt id='5011'>0.83711E+02</wgt>
<wgt id='5012'>0.83164E+02</wgt>
<wgt id='5013'>0.83540E+02</wgt>
<wgt id='5014'>0.83356E+02</wgt>
<wgt id='5015'>0.83022E+02</wgt>
<wgt id='5016'>0.83022E+02</wgt>
<wgt id='5017'>0.83779E+02</wgt>
<wgt id='5018'>0.83200E+02</wgt>
<wgt id='5019'>0.83750E+02</wgt>
<wgt id='5020'>0.82998E+02</wgt>
<wgt id='5021'>0.83532E+02</wgt>
<wgt id='5022'>0.83276E+02</wgt>
<wgt id='5023'>0.83381E+02</wgt>
<wgt id='5024'>0.83557E+02</wgt>
<wgt id='5025'>0.83223E+02</wgt>
<wgt id='5026'>0.83665E+02</wgt>
<wgt id='5027'>0.83501E+02</wgt>
<wgt id='5028'>0.83248E+02</wgt>
<wgt id='5029'>0.84584E+02</wgt>
<wgt id='5030'>0.82786E+02</wgt>
<wgt id='5031'>0.82762E+02</wgt>
<wgt id='5032'>0.85487E+02</wgt>
<wgt id='5033'>0.83333E+02</wgt>
<wgt id='5034'>0.83540E+02</wgt>
<wgt id='5035'>0.83445E+02</wgt>
<wgt id='5036'>0.83418E+02</wgt>
<wgt id='5037'>0.83104E+02</wgt>
<wgt id='5038'>0.83618E+02</wgt>
<wgt id='5039'>0.83617E+02</wgt>
<wgt id='5040'>0.82979E+02</wgt>
<wgt id='5041'>0.82975E+02</wgt>
<wgt id='5042'>0.83920E+02</wgt>
<wgt id='5043'>0.83640E+02</wgt>
<wgt id='5044'>0.83291E+02</wgt>
<wgt id='5045'>0.83888E+02</wgt>
<wgt id='5046'>0.82574E+02</wgt>
<wgt id='5047'>0.83555E+02</wgt>
<wgt id='5048'>0.82902E+02</wgt>
<wgt id='5049'>0.83303E+02</wgt>
<wgt id='5050'>0.83745E+02</wgt>
<wgt id='5051'>0.83733E+02</wgt>
<wgt id='5052'>0.83231E+02</wgt>
<wgt id='5053'>0.83757E+02</wgt>
<wgt id='5054'>0.83582E+02</wgt>
<wgt id='5055'>0.83476E+02</wgt>
<wgt id='5056'>0.83541E+02</wgt>
<wgt id='5057'>0.83005E+02</wgt>
<wgt id='5058'>0.83733E+02</wgt>
<wgt id='5059'>0.83240E+02</wgt>
<wgt id='5060'>0.83551E+02</wgt>
<wgt id='5061'>0.83663E+02</wgt>
<wgt id='5062'>0.83757E+02</wgt>
<wgt id='5063'>0.83692E+02</wgt>
<wgt id='5064'>0.83608E+02</wgt>
<wgt id='5100'>0.83433E+02</wgt>
<wgt id='5101'>0.83421E+02</wgt>
<wgt id='6000'>0.82765E+02</wgt>
<wgt id='6001'>0.82242E+02</wgt>
<wgt id='6002'>0.81853E+02</wgt>
<wgt id='6003'>0.82477E+02</wgt>
<wgt id='6004'>0.83309E+02</wgt>
<wgt id='6005'>0.82117E+02</wgt>
<wgt id='6006'>0.82758E+02</wgt>
<wgt id='6007'>0.82035E+02</wgt>
<wgt id='6008'>0.83199E+02</wgt>
<wgt id='6009'>0.82581E+02</wgt>
<wgt id='6010'>0.83245E+02</wgt>
<wgt id='6011'>0.82750E+02</wgt>
<wgt id='6012'>0.82972E+02</wgt>
<wgt id='6013'>0.82259E+02</wgt>
<wgt id='6014'>0.82305E+02</wgt>
<wgt id='6015'>0.81945E+02</wgt>
<wgt id='6016'>0.83327E+02</wgt>
<wgt id='6017'>0.82278E+02</wgt>
<wgt id='6018'>0.81981E+02</wgt>
<wgt id='6019'>0.82947E+02</wgt>
<wgt id='6020'>0.82965E+02</wgt>
<wgt id='6021'>0.82653E+02</wgt>
<wgt id='6022'>0.83089E+02</wgt>
<wgt id='6023'>0.82689E+02</wgt>
<wgt id='6024'>0.82898E+02</wgt>
<wgt id='6025'>0.83406E+02</wgt>
<wgt id='6026'>0.82606E+02</wgt>
<wgt id='6027'>0.82869E+02</wgt>
<wgt id='6028'>0.82142E+02</wgt>
<wgt id='6029'>0.82447E+02</wgt>
<wgt id='6030'>0.82107E+02</wgt>
<wgt id='6031'>0.82468E+02</wgt>
<wgt id='6032'>0.82728E+02</wgt>
<wgt id='6033'>0.82648E+02</wgt>
<wgt id='6034'>0.83201E+02</wgt>
<wgt id='6035'>0.82836E+02</wgt>
<wgt id='6036'>0.83792E+02</wgt>
<wgt id='6037'>0.82741E+02</wgt>
<wgt id='6038'>0.82632E+02</wgt>
<wgt id='6039'>0.83064E+02</wgt>
<wgt id='6040'>0.82798E+02</wgt>
<wgt id='6041'>0.81269E+02</wgt>
<wgt id='6042'>0.83812E+02</wgt>
<wgt id='7000'>0.79897E+02</wgt>
<wgt id='7001'>0.79221E+02</wgt>
<wgt id='7002'>0.79385E+02</wgt>
<wgt id='7003'>0.79303E+02</wgt>
<wgt id='7004'>0.79304E+02</wgt>
<wgt id='7005'>0.79368E+02</wgt>
<wgt id='7006'>0.79239E+02</wgt>
<wgt id='7007'>0.79756E+02</wgt>
<wgt id='7008'>0.78863E+02</wgt>
<wgt id='7009'>0.78924E+02</wgt>
<wgt id='7010'>0.79696E+02</wgt>
<wgt id='7011'>0.79597E+02</wgt>
<wgt id='7012'>0.79019E+02</wgt>
<wgt id='7013'>0.79275E+02</wgt>
<wgt id='7014'>0.79327E+02</wgt>
<wgt id='7015'>0.79525E+02</wgt>
<wgt id='7016'>0.78939E+02</wgt>
<wgt id='7017'>0.79110E+02</wgt>
<wgt id='7018'>0.79506E+02</wgt>
<wgt id='7019'>0.79799E+02</wgt>
<wgt id='7020'>0.78829E+02</wgt>
<wgt id='7021'>0.80704E+02</wgt>
<wgt id='7022'>0.77966E+02</wgt>
<wgt id='7023'>0.78003E+02</wgt>
<wgt id='7024'>0.80614E+02</wgt>
<wgt id='7025'>0.77595E+02</wgt>
<wgt id='7026'>0.80950E+02</wgt>
<wgt id='7027'>0.78567E+02</wgt>
<wgt id='7028'>0.80127E+02</wgt>
<wgt id='8000'>0.80145E+02</wgt>
<wgt id='8001'>0.80136E+02</wgt>
<wgt id='8002'>0.80169E+02</wgt>
<wgt id='8003'>0.80145E+02</wgt>
<wgt id='8004'>0.80142E+02</wgt>
<wgt id='8005'>0.79986E+02</wgt>
<wgt id='8006'>0.80250E+02</wgt>
<wgt id='8007'>0.80322E+02</wgt>
<wgt id='8008'>0.80321E+02</wgt>
<wgt id='8009'>0.80494E+02</wgt>
<wgt id='8010'>0.80044E+02</wgt>
<wgt id='8011'>0.80188E+02</wgt>
<wgt id='8012'>0.79846E+02</wgt>
<wgt id='8013'>0.79971E+02</wgt>
<wgt id='8014'>0.80367E+02</wgt>
<wgt id='8015'>0.80089E+02</wgt>
<wgt id='8016'>0.80289E+02</wgt>
<wgt id='8017'>0.80297E+02</wgt>
<wgt id='8018'>0.80496E+02</wgt>
<wgt id='8019'>0.79909E+02</wgt>
<wgt id='8020'>0.80575E+02</wgt>
<wgt id='8021'>0.79953E+02</wgt>
<wgt id='8022'>0.80906E+02</wgt>
<wgt id='8023'>0.79758E+02</wgt>
<wgt id='8024'>0.79421E+02</wgt>
<wgt id='8025'>0.79561E+02</wgt>
<wgt id='8026'>0.80106E+02</wgt>
<wgt id='8027'>0.80338E+02</wgt>
<wgt id='8028'>0.80165E+02</wgt>
<wgt id='8029'>0.82305E+02</wgt>
<wgt id='3000'>0.81104E+02</wgt>
<wgt id='3001'>0.83553E+02</wgt>
<wgt id='3002'>0.80162E+02</wgt>
<wgt id='3003'>0.82048E+02</wgt>
<wgt id='3004'>0.81736E+02</wgt>
<wgt id='3005'>0.81976E+02</wgt>
<wgt id='3006'>0.81376E+02</wgt>
<wgt id='3007'>0.78344E+02</wgt>
<wgt id='3008'>0.77828E+02</wgt>
<wgt id='3009'>0.79962E+02</wgt>
<wgt id='3010'>0.87237E+02</wgt>
<wgt id='3011'>0.82920E+02</wgt>
<wgt id='3012'>0.78942E+02</wgt>
<wgt id='3013'>0.81397E+02</wgt>
<wgt id='3014'>0.80311E+02</wgt>
<wgt id='3015'>0.79682E+02</wgt>
<wgt id='3016'>0.80577E+02</wgt>
<wgt id='3017'>0.80959E+02</wgt>
<wgt id='3018'>0.78932E+02</wgt>
<wgt id='3019'>0.79847E+02</wgt>
<wgt id='3020'>0.80487E+02</wgt>
<wgt id='3021'>0.80402E+02</wgt>
<wgt id='3022'>0.79176E+02</wgt>
<wgt id='3023'>0.79241E+02</wgt>
<wgt id='3024'>0.80849E+02</wgt>
<wgt id='3025'>0.78702E+02</wgt>
<wgt id='3026'>0.80431E+02</wgt>
<wgt id='3027'>0.83496E+02</wgt>
<wgt id='3028'>0.77895E+02</wgt>
<wgt id='3029'>0.81034E+02</wgt>
<wgt id='3030'>0.80180E+02</wgt>
<wgt id='3031'>0.86248E+02</wgt>
<wgt id='3032'>0.79661E+02</wgt>
<wgt id='3033'>0.79158E+02</wgt>
<wgt id='3034'>0.81433E+02</wgt>
<wgt id='3035'>0.85275E+02</wgt>
<wgt id='3036'>0.81672E+02</wgt>
<wgt id='3037'>0.80930E+02</wgt>
<wgt id='3038'>0.81703E+02</wgt>
<wgt id='3039'>0.80796E+02</wgt>
<wgt id='3040'>0.80019E+02</wgt>
<wgt id='3041'>0.81103E+02</wgt>
<wgt id='3042'>0.80680E+02</wgt>
<wgt id='3043'>0.82342E+02</wgt>
<wgt id='3044'>0.81996E+02</wgt>
<wgt id='3045'>0.80994E+02</wgt>
<wgt id='3046'>0.80876E+02</wgt>
<wgt id='3047'>0.82142E+02</wgt>
<wgt id='3048'>0.82368E+02</wgt>
<wgt id='3049'>0.82419E+02</wgt>
<wgt id='3050'>0.84224E+02</wgt>
<wgt id='3051'>0.80430E+02</wgt>
<wgt id='3052'>0.79651E+02</wgt>
<wgt id='3053'>0.82702E+02</wgt>
<wgt id='3054'>0.79040E+02</wgt>
<wgt id='3055'>0.80810E+02</wgt>
<wgt id='3056'>0.80283E+02</wgt>
<wgt id='3057'>0.79942E+02</wgt>
<wgt id='3058'>0.82818E+02</wgt>
<wgt id='3059'>0.78870E+02</wgt>
<wgt id='3060'>0.80590E+02</wgt>
<wgt id='3061'>0.81528E+02</wgt>
<wgt id='3062'>0.82166E+02</wgt>
<wgt id='3063'>0.81996E+02</wgt>
<wgt id='3064'>0.82516E+02</wgt>
<wgt id='3065'>0.78989E+02</wgt>
<wgt id='3066'>0.82061E+02</wgt>
<wgt id='3067'>0.80430E+02</wgt>
<wgt id='3068'>0.79924E+02</wgt>
<wgt id='3069'>0.80392E+02</wgt>
<wgt id='3070'>0.82423E+02</wgt>
<wgt id='3071'>0.81286E+02</wgt>
<wgt id='3072'>0.82512E+02</wgt>
<wgt id='3073'>0.80191E+02</wgt>
<wgt id='3074'>0.79942E+02</wgt>
<wgt id='3075'>0.81244E+02</wgt>
<wgt id='3076'>0.84307E+02</wgt>
<wgt id='3077'>0.82012E+02</wgt>
<wgt id='3078'>0.80408E+02</wgt>
<wgt id='3079'>0.81355E+02</wgt>
<wgt id='3080'>0.84740E+02</wgt>
<wgt id='3081'>0.81939E+02</wgt>
<wgt id='3082'>0.80577E+02</wgt>
<wgt id='3083'>0.81070E+02</wgt>
<wgt id='3084'>0.79410E+02</wgt>
<wgt id='3085'>0.81069E+02</wgt>
<wgt id='3086'>0.82821E+02</wgt>
<wgt id='3087'>0.79766E+02</wgt>
<wgt id='3088'>0.81123E+02</wgt>
<wgt id='3089'>0.82515E+02</wgt>
<wgt id='3090'>0.79425E+02</wgt>
<wgt id='3091'>0.79514E+02</wgt>
<wgt id='3092'>0.81936E+02</wgt>
<wgt id='3093'>0.80983E+02</wgt>
<wgt id='3094'>0.81595E+02</wgt>
<wgt id='3095'>0.79302E+02</wgt>
<wgt id='3096'>0.80349E+02</wgt>
<wgt id='3097'>0.85912E+02</wgt>
<wgt id='3098'>0.80522E+02</wgt>
<wgt id='3099'>0.78846E+02</wgt>
<wgt id='3100'>0.79944E+02</wgt>
<wgt id='3200'>0.79321E+02</wgt>
<wgt id='3201'>0.78529E+02</wgt>
<wgt id='3202'>0.77365E+02</wgt>
<wgt id='3203'>0.79822E+02</wgt>
<wgt id='3204'>0.79328E+02</wgt>
<wgt id='3205'>0.79614E+02</wgt>
<wgt id='3206'>0.80515E+02</wgt>
<wgt id='3207'>0.79874E+02</wgt>
<wgt id='3208'>0.79345E+02</wgt>
<wgt id='3209'>0.79312E+02</wgt>
<wgt id='3210'>0.79431E+02</wgt>
<wgt id='3211'>0.79181E+02</wgt>
<wgt id='3212'>0.79548E+02</wgt>
<wgt id='3213'>0.80214E+02</wgt>
<wgt id='3214'>0.78861E+02</wgt>
<wgt id='3215'>0.79069E+02</wgt>
<wgt id='3216'>0.80026E+02</wgt>
<wgt id='3217'>0.79825E+02</wgt>
<wgt id='3218'>0.80691E+02</wgt>
<wgt id='3219'>0.78874E+02</wgt>
<wgt id='3220'>0.78347E+02</wgt>
<wgt id='3221'>0.79032E+02</wgt>
<wgt id='3222'>0.80004E+02</wgt>
<wgt id='3223'>0.79665E+02</wgt>
<wgt id='3224'>0.79004E+02</wgt>
<wgt id='3225'>0.80076E+02</wgt>
<wgt id='3226'>0.78407E+02</wgt>
<wgt id='3227'>0.78463E+02</wgt>
<wgt id='3228'>0.79147E+02</wgt>
<wgt id='3229'>0.80514E+02</wgt>
<wgt id='3230'>0.79489E+02</wgt>
<wgt id='3231'>0.79575E+02</wgt>
<wgt id='3232'>0.79657E+02</wgt>
<wgt id='3233'>0.79111E+02</wgt>
<wgt id='3234'>0.77670E+02</wgt>
<wgt id='3235'>0.79306E+02</wgt>
<wgt id='3236'>0.80309E+02</wgt>
<wgt id='3237'>0.79682E+02</wgt>
<wgt id='3238'>0.79333E+02</wgt>
<wgt id='3239'>0.78349E+02</wgt>
<wgt id='3240'>0.77588E+02</wgt>
<wgt id='3241'>0.80058E+02</wgt>
<wgt id='3242'>0.79917E+02</wgt>
<wgt id='3243'>0.80450E+02</wgt>
<wgt id='3244'>0.80199E+02</wgt>
<wgt id='3245'>0.80243E+02</wgt>
<wgt id='3246'>0.77777E+02</wgt>
<wgt id='3247'>0.77586E+02</wgt>
<wgt id='3248'>0.79024E+02</wgt>
<wgt id='3249'>0.78420E+02</wgt>
<wgt id='3250'>0.78805E+02</wgt>
<wgt id='3251'>0.78822E+02</wgt>
<wgt id='3252'>0.80642E+02</wgt>
<wgt id='3253'>0.80245E+02</wgt>
<wgt id='3254'>0.79150E+02</wgt>
<wgt id='3255'>0.77799E+02</wgt>
<wgt id='3256'>0.79052E+02</wgt>
<wgt id='3257'>0.78920E+02</wgt>
<wgt id='3258'>0.78125E+02</wgt>
<wgt id='3259'>0.77879E+02</wgt>
<wgt id='3260'>0.79456E+02</wgt>
<wgt id='3261'>0.78067E+02</wgt>
<wgt id='3262'>0.80921E+02</wgt>
<wgt id='3263'>0.79435E+02</wgt>
<wgt id='3264'>0.80055E+02</wgt>
<wgt id='3265'>0.80450E+02</wgt>
<wgt id='3266'>0.79682E+02</wgt>
<wgt id='3267'>0.79554E+02</wgt>
<wgt id='3268'>0.77772E+02</wgt>
<wgt id='3269'>0.78738E+02</wgt>
<wgt id='3270'>0.81385E+02</wgt>
<wgt id='3271'>0.78953E+02</wgt>
<wgt id='3272'>0.79288E+02</wgt>
<wgt id='3273'>0.79445E+02</wgt>
<wgt id='3274'>0.79059E+02</wgt>
<wgt id='3275'>0.80457E+02</wgt>
<wgt id='3276'>0.78345E+02</wgt>
<wgt id='3277'>0.79388E+02</wgt>
<wgt id='3278'>0.80480E+02</wgt>
<wgt id='3279'>0.79568E+02</wgt>
<wgt id='3280'>0.79119E+02</wgt>
<wgt id='3281'>0.80349E+02</wgt>
<wgt id='3282'>0.79298E+02</wgt>
<wgt id='3283'>0.79931E+02</wgt>
<wgt id='3284'>0.78052E+02</wgt>
<wgt id='3285'>0.79736E+02</wgt>
<wgt id='3286'>0.78066E+02</wgt>
<wgt id='3287'>0.81808E+02</wgt>
<wgt id='3288'>0.77967E+02</wgt>
<wgt id='3289'>0.80235E+02</wgt>
<wgt id='3290'>0.77894E+02</wgt>
<wgt id='3291'>0.79060E+02</wgt>
<wgt id='3292'>0.79176E+02</wgt>
<wgt id='3293'>0.79119E+02</wgt>
<wgt id='3294'>0.79872E+02</wgt>
<wgt id='3295'>0.79010E+02</wgt>
<wgt id='3296'>0.79670E+02</wgt>
<wgt id='3297'>0.79866E+02</wgt>
<wgt id='3298'>0.77819E+02</wgt>
<wgt id='3299'>0.79934E+02</wgt>
<wgt id='3300'>0.80252E+02</wgt>
<wgt id='3301'>0.77716E+02</wgt>
<wgt id='3302'>0.80198E+02</wgt>
<wgt id='3400'>0.78315E+02</wgt>
<wgt id='3401'>0.79104E+02</wgt>
<wgt id='3402'>0.76303E+02</wgt>
<wgt id='3403'>0.79103E+02</wgt>
<wgt id='3404'>0.79694E+02</wgt>
<wgt id='3405'>0.79034E+02</wgt>
<wgt id='3406'>0.79518E+02</wgt>
<wgt id='3407'>0.78179E+02</wgt>
<wgt id='3408'>0.78614E+02</wgt>
<wgt id='3409'>0.78038E+02</wgt>
<wgt id='3410'>0.79080E+02</wgt>
<wgt id='3411'>0.79775E+02</wgt>
<wgt id='3412'>0.78925E+02</wgt>
<wgt id='3413'>0.77941E+02</wgt>
<wgt id='3414'>0.78129E+02</wgt>
<wgt id='3415'>0.78515E+02</wgt>
<wgt id='3416'>0.78078E+02</wgt>
<wgt id='3417'>0.79111E+02</wgt>
<wgt id='3418'>0.77735E+02</wgt>
<wgt id='3419'>0.77843E+02</wgt>
<wgt id='3420'>0.77857E+02</wgt>
<wgt id='3421'>0.77501E+02</wgt>
<wgt id='3422'>0.77512E+02</wgt>
<wgt id='3423'>0.80329E+02</wgt>
<wgt id='3424'>0.78573E+02</wgt>
<wgt id='3425'>0.77413E+02</wgt>
<wgt id='3426'>0.77506E+02</wgt>
<wgt id='3427'>0.76942E+02</wgt>
<wgt id='3428'>0.78162E+02</wgt>
<wgt id='3429'>0.77140E+02</wgt>
<wgt id='3430'>0.77767E+02</wgt>
<wgt id='3431'>0.78893E+02</wgt>
<wgt id='3432'>0.79550E+02</wgt>
<wgt id='3433'>0.78319E+02</wgt>
<wgt id='3434'>0.80094E+02</wgt>
<wgt id='3435'>0.79584E+02</wgt>
<wgt id='3436'>0.78295E+02</wgt>
<wgt id='3437'>0.80087E+02</wgt>
<wgt id='3438'>0.77786E+02</wgt>
<wgt id='3439'>0.76197E+02</wgt>
<wgt id='3440'>0.78799E+02</wgt>
<wgt id='3441'>0.78810E+02</wgt>
<wgt id='3442'>0.78306E+02</wgt>
<wgt id='3443'>0.79390E+02</wgt>
<wgt id='3444'>0.77388E+02</wgt>
<wgt id='3445'>0.77458E+02</wgt>
<wgt id='3446'>0.78804E+02</wgt>
<wgt id='3447'>0.77986E+02</wgt>
<wgt id='3448'>0.79805E+02</wgt>
<wgt id='3449'>0.78461E+02</wgt>
<wgt id='3450'>0.77466E+02</wgt>
<wgt id='3451'>0.78999E+02</wgt>
<wgt id='3452'>0.77599E+02</wgt>
<wgt id='3453'>0.76608E+02</wgt>
<wgt id='3454'>0.78385E+02</wgt>
<wgt id='3455'>0.78992E+02</wgt>
<wgt id='3456'>0.78556E+02</wgt>
<wgt id='3457'>0.78032E+02</wgt>
<wgt id='3458'>0.77461E+02</wgt>
<wgt id='3459'>0.78484E+02</wgt>
<wgt id='3460'>0.78095E+02</wgt>
<wgt id='3461'>0.77531E+02</wgt>
<wgt id='3462'>0.78582E+02</wgt>
<wgt id='3463'>0.77299E+02</wgt>
<wgt id='3464'>0.78176E+02</wgt>
<wgt id='3465'>0.78727E+02</wgt>
<wgt id='3466'>0.79357E+02</wgt>
<wgt id='3467'>0.77993E+02</wgt>
<wgt id='3468'>0.77536E+02</wgt>
<wgt id='3469'>0.76661E+02</wgt>
<wgt id='3470'>0.77634E+02</wgt>
<wgt id='3471'>0.77466E+02</wgt>
<wgt id='3472'>0.76280E+02</wgt>
<wgt id='3473'>0.80459E+02</wgt>
<wgt id='3474'>0.77477E+02</wgt>
<wgt id='3475'>0.78767E+02</wgt>
<wgt id='3476'>0.78246E+02</wgt>
<wgt id='3477'>0.77027E+02</wgt>
<wgt id='3478'>0.79330E+02</wgt>
<wgt id='3479'>0.77777E+02</wgt>
<wgt id='3480'>0.79018E+02</wgt>
<wgt id='3481'>0.79605E+02</wgt>
<wgt id='3482'>0.78672E+02</wgt>
<wgt id='3483'>0.78352E+02</wgt>
<wgt id='3484'>0.77422E+02</wgt>
<wgt id='3485'>0.77390E+02</wgt>
<wgt id='3486'>0.76138E+02</wgt>
<wgt id='3487'>0.76958E+02</wgt>
<wgt id='3488'>0.78069E+02</wgt>
<wgt id='3489'>0.77176E+02</wgt>
<wgt id='3490'>0.79271E+02</wgt>
<wgt id='3491'>0.80538E+02</wgt>
<wgt id='3492'>0.77726E+02</wgt>
<wgt id='3493'>0.80405E+02</wgt>
<wgt id='3494'>0.76706E+02</wgt>
<wgt id='3495'>0.79808E+02</wgt>
<wgt id='3496'>0.77132E+02</wgt>
<wgt id='3497'>0.78102E+02</wgt>
<wgt id='3498'>0.79811E+02</wgt>
<wgt id='3499'>0.78256E+02</wgt>
<wgt id='3500'>0.80486E+02</wgt>
</rwgt>
</event>
<event>
     13 322200  8.11039E+01  4.93781E+00 -1.00000E+00  2.37306E-01
      21    -1     0     0   502   503  0.000000000E+00  0.000000000E+00  1.106369822E+03  1.106369822E+03  0.000000000E+00  0.00000E+00  9.000E+00
      21    -1     0     0   503   504  0.000000000E+00  0.000000000E+00 -7.175709858E+01  7.175709858E+01  0.000000000E+00  0.00000E+00  9.000E+00
       6     2     1     2   502     0  1.211956256E+01 -5.196071121E+01  9.279561904E+02  9.456281269E+02  1.739628225E+02  0.00000E+00  9.000E+00
      -6     2     1     2     0   505 -8.999294207E+00  5.578770488E+01  1.206625909E+02  2.176478139E+02  1.720983868E+02  0.00000E+00  9.000E+00
      21     1     1     2   505   504 -3.120268352E+00 -3.826993673E+00 -1.400605771E+01  1.485098003E+01  6.307962682E-07  0.00000E+00  9.000E+00
      24     2     3     3     0     0  1.485076042E+01 -3.646891458E+01  2.228462647E+02  2.403245992E+02  8.090073208E+01  0.00000E+00  9.000E+00
       5     1     3     3   502     0 -2.731197867E+00 -1.549179663E+01  7.051099257E+02  7.053035277E+02  5.060000000E+00  0.00000E+00 -1.000E+00
     -24     2     4     4     0     0 -3.738516231E+01 -2.718808652E+01  5.488033258E+01  1.079042557E+02  8.058929878E+01  0.00000E+00  9.000E+00
      -5     1     4     4     0   505  2.838586811E+01  8.297579140E+01  6.578225831E+01  1.097435582E+02  5.060000000E+00  0.00000E+00  1.000E+00
     -13     1     6     6     0     0  1.421997303E+01 -6.356445325E+00  2.044275217E+02  2.050200840E+02  1.057000000E-01  0.00000E+00  1.000E+00
      14     1     6     6     0     0  6.307873994E-01 -3.011246925E+01  1.841874296E+01  3.530451514E+01  0.000000000E+00  0.00000E+00 -1.000E+00
      13     1     8     8     0     0  2.100100271E+01 -2.735630140E+01  1.902947096E+01  3.938960877E+01  1.057000000E-01  0.00000E+00 -1.000E+00
     -14     1     8     8     0     0 -5.838616502E+01  1.682148833E-01  3.585086162E+01  6.851464691E+01  0.000000000E+00  0.00000E+00  1.000E+00
#rwgt            1           1   620.78064898280343               10       25145           0
<rwgt>
<wgt id='1001'>0.81104E+02</wgt>
<wgt id='1002'>0.83033E+02</wgt>
<wgt id='1003'>0.78567E+02</wgt>
<wgt id='1004'>0.67981E+02</wgt>
<wgt id='1005'>0.69075E+02</wgt>
<wgt id='1006'>0.66440E+02</wgt>
<wgt id='1007'>0.98549E+02</wgt>
<wgt id='1008'>0.10181E+03</wgt>
<wgt id='1009'>0.94438E+02</wgt>
<wgt id='2000'>0.81104E+02</wgt>
<wgt id='2001'>0.80950E+02</wgt>
<wgt id='2002'>0.81027E+02</wgt>
<wgt id='2003'>0.81102E+02</wgt>
<wgt id='2004'>0.81474E+02</wgt>
<wgt id='2005'>0.80857E+02</wgt>
<wgt id='2006'>0.81331E+02</wgt>
<wgt id='2007'>0.81269E+02</wgt>
<wgt id='2008'>0.81135E+02</wgt>
<wgt id='2009'>0.81369E+02</wgt>
<wgt id='2010'>0.81057E+02</wgt>
<wgt id='2011'>0.81121E+02</wgt>
<wgt id='2012'>0.81397E+02</wgt>
<wgt id='2013'>0.81065E+02</wgt>
<wgt id='2014'>0.81116E+02</wgt>
<wgt id='2015'>0.81132E+02</wgt>
<wgt id='2016'>0.81032E+02</wgt>
<wgt id='2017'>0.81056E+02</wgt>
<wgt id='2018'>0.80854E+02</wgt>
<wgt id='2019'>0.80598E+02</wgt>
<wgt id='2020'>0.80847E+02</wgt>
<wgt id='2021'>0.81158E+02</wgt>
<wgt id='2022'>0.80974E+02</wgt>
<wgt id='2023'>0.81194E+02</wgt>
<wgt id='2024'>0.80479E+02</wgt>
<wgt id='2025'>0.81460E+02</wgt>
<wgt id='2026'>0.81259E+02</wgt>
<wgt id='2027'>0.81515E+02</wgt>
<wgt id='2028'>0.80766E+02</wgt>
<wgt id='2029'>0.80914E+02</wgt>
<wgt id='2030'>0.81168E+02</wgt>
<wgt id='2031'>0.80741E+02</wgt>
<wgt id='2032'>0.80959E+02</wgt>
<wgt id='2033'>0.80925E+02</wgt>
<wgt id='2034'>0.80782E+02</wgt>
<wgt id='2035'>0.81133E+02</wgt>
<wgt id='2036'>0.81247E+02</wgt>
<wgt id='2037'>0.80927E+02</wgt>
<wgt id='2038'>0.81030E+02</wgt>
<wgt id='2039'>0.80985E+02</wgt>
<wgt id='2040'>0.80922E+02</wgt>
<wgt id='2041'>0.81017E+02</wgt>
<wgt id='2042'>0.81290E+02</wgt>
<wgt id='2043'>0.81127E+02</wgt>
<wgt id='2044'>0.81166E+02</wgt>
<wgt id='2045'>0.81080E+02</wgt>
<wgt id='2046'>0.81018E+02</wgt>
<wgt id='2047'>0.81133E+02</wgt>
<wgt id='2048'>0.81051E+02</wgt>
<wgt id='2049'>0.81032E+02</wgt>
<wgt id='2050'>0.80998E+02</wgt>
<wgt id='2051'>0.80991E+02</wgt>
<wgt id='2052'>0.81243E+02</wgt>
<wgt id='2053'>0.81074E+02</wgt>
<wgt id='2054'>0.81068E+02</wgt>
<wgt id='2055'>0.81055E+02</wgt>
<wgt id='2056'>0.81049E+02</wgt>
<wgt id='2057'>0.81153E+02</wgt>
<wgt id='2058'>0.81166E+02</wgt>
<wgt id='2059'>0.81090E+02</wgt>
<wgt id='2060'>0.81094E+02</wgt>
<wgt id='2061'>0.81041E+02</wgt>
<wgt id='2062'>0.81207E+02</wgt>
<wgt id='2063'>0.81115E+02</wgt>
<wgt id='2064'>0.81099E+02</wgt>
<wgt id='2065'>0.81178E+02</wgt>
<wgt id='2066'>0.81055E+02</wgt>
<wgt id='2067'>0.81061E+02</wgt>
<wgt id='2068'>0.81174E+02</wgt>
<wgt id='2069'>0.81100E+02</wgt>
<wgt id='2070'>0.81113E+02</wgt>
<wgt id='2071'>0.81090E+02</wgt>
<wgt id='2072'>0.81075E+02</wgt>
<wgt id='2073'>0.81125E+02</wgt>
<wgt id='2074'>0.81076E+02</wgt>
<wgt id='2075'>0.81087E+02</wgt>
<wgt id='2076'>0.81093E+02</wgt>
<wgt id='2077'>0.81162E+02</wgt>
<wgt id='2078'>0.81116E+02</wgt>
<wgt id='2079'>0.81089E+02</wgt>
<wgt id='2080'>0.81119E+02</wgt>
<wgt id='2081'>0.81088E+02</wgt>
<wgt id='2082'>0.81125E+02</wgt>
<wgt id='2083'>0.81162E+02</wgt>
<wgt id='2084'>0.81097E+02</wgt>
<wgt id='2085'>0.81112E+02</wgt>
<wgt id='2086'>0.81089E+02</wgt>
<wgt id='2087'>0.81117E+02</wgt>
<wgt id='2088'>0.81090E+02</wgt>
<wgt id='2089'>0.81086E+02</wgt>
<wgt id='2090'>0.81129E+02</wgt>
<wgt id='2091'>0.81121E+02</wgt>
<wgt id='2092'>0.81142E+02</wgt>
<wgt id='2093'>0.81072E+02</wgt>
<wgt id='2094'>0.81115E+02</wgt>
<wgt id='2095'>0.81129E+02</wgt>
<wgt id='2096'>0.81084E+02</wgt>
<wgt id='2097'>0.81127E+02</wgt>
<wgt id='2098'>0.81108E+02</wgt>
<wgt id='2099'>0.81120E+02</wgt>
<wgt id='2100'>0.81104E+02</wgt>
<wgt id='2101'>0.79017E+02</wgt>
<wgt id='2102'>0.83328E+02</wgt>
<wgt id='2200'>0.80912E+02</wgt>
<wgt id='2201'>0.69493E+02</wgt>
<wgt id='2202'>0.71762E+02</wgt>
<wgt id='2203'>0.74259E+02</wgt>
<wgt id='2204'>0.76076E+02</wgt>
<wgt id='2205'>0.79694E+02</wgt>
<wgt id='2206'>0.82385E+02</wgt>
<wgt id='2207'>0.85779E+02</wgt>
<wgt id='2208'>0.88656E+02</wgt>
<wgt id='2300'>0.86752E+02</wgt>
<wgt id='2301'>0.86863E+02</wgt>
<wgt id='2302'>0.86708E+02</wgt>
<wgt id='2303'>0.86711E+02</wgt>
<wgt id='2304'>0.87040E+02</wgt>
<wgt id='2305'>0.86812E+02</wgt>
<wgt id='2306'>0.86738E+02</wgt>
<wgt id='2307'>0.86742E+02</wgt>
<wgt id='2308'>0.86613E+02</wgt>
<wgt id='2309'>0.86626E+02</wgt>
<wgt id='2310'>0.86443E+02</wgt>
<wgt id='2311'>0.86786E+02</wgt>
<wgt id='2312'>0.86955E+02</wgt>
<wgt id='2313'>0.86706E+02</wgt>
<wgt id='2314'>0.86721E+02</wgt>
<wgt id='2315'>0.86735E+02</wgt>
<wgt id='2316'>0.86868E+02</wgt>
<wgt id='2317'>0.86767E+02</wgt>
<wgt id='2318'>0.86830E+02</wgt>
<wgt id='2319'>0.86722E+02</wgt>
<wgt id='2320'>0.86881E+02</wgt>
<wgt id='2321'>0.86894E+02</wgt>
<wgt id='2322'>0.86657E+02</wgt>
<wgt id='2323'>0.86634E+02</wgt>
<wgt id='2324'>0.86771E+02</wgt>
<wgt id='2325'>0.86773E+02</wgt>
<wgt id='2326'>0.86620E+02</wgt>
<wgt id='2327'>0.86837E+02</wgt>
<wgt id='2328'>0.86719E+02</wgt>
<wgt id='2329'>0.86744E+02</wgt>
<wgt id='2330'>0.87146E+02</wgt>
<wgt id='2331'>0.86917E+02</wgt>
<wgt id='2332'>0.86493E+02</wgt>
<wgt id='2333'>0.86484E+02</wgt>
<wgt id='2334'>0.86745E+02</wgt>
<wgt id='2335'>0.86055E+02</wgt>
<wgt id='2336'>0.86784E+02</wgt>
<wgt id='2337'>0.87177E+02</wgt>
<wgt id='2338'>0.86784E+02</wgt>
<wgt id='2339'>0.86746E+02</wgt>
<wgt id='2340'>0.87243E+02</wgt>
<wgt id='2341'>0.87008E+02</wgt>
<wgt id='2342'>0.86425E+02</wgt>
<wgt id='2343'>0.86438E+02</wgt>
<wgt id='2344'>0.86802E+02</wgt>
<wgt id='2345'>0.86790E+02</wgt>
<wgt id='2346'>0.87148E+02</wgt>
<wgt id='2347'>0.86695E+02</wgt>
<wgt id='2348'>0.86918E+02</wgt>
<wgt id='2349'>0.86747E+02</wgt>
<wgt id='2350'>0.86514E+02</wgt>
<wgt id='2351'>0.86896E+02</wgt>
<wgt id='2352'>0.86550E+02</wgt>
<wgt id='2353'>0.86766E+02</wgt>
<wgt id='2354'>0.86826E+02</wgt>
<wgt id='2355'>0.86468E+02</wgt>
<wgt id='2356'>0.86693E+02</wgt>
<wgt id='2357'>0.86706E+02</wgt>
<wgt id='2358'>0.86646E+02</wgt>
<wgt id='2359'>0.86685E+02</wgt>
<wgt id='2360'>0.86906E+02</wgt>
<wgt id='2361'>0.86727E+02</wgt>
<wgt id='2362'>0.86843E+02</wgt>
<wgt id='2363'>0.86665E+02</wgt>
<wgt id='2364'>0.86695E+02</wgt>
<wgt id='2365'>0.86626E+02</wgt>
<wgt id='2366'>0.86786E+02</wgt>
<wgt id='2367'>0.86524E+02</wgt>
<wgt id='2368'>0.86823E+02</wgt>
<wgt id='2369'>0.86694E+02</wgt>
<wgt id='2370'>0.86744E+02</wgt>
<wgt id='2371'>0.86665E+02</wgt>
<wgt id='2372'>0.86759E+02</wgt>
<wgt id='2373'>0.86726E+02</wgt>
<wgt id='2374'>0.86785E+02</wgt>
<wgt id='2375'>0.86785E+02</wgt>
<wgt id='2376'>0.86776E+02</wgt>
<wgt id='2377'>0.86776E+02</wgt>
<wgt id='2378'>0.86795E+02</wgt>
<wgt id='2379'>0.86703E+02</wgt>
<wgt id='2380'>0.86737E+02</wgt>
<wgt id='2381'>0.86724E+02</wgt>
<wgt id='2382'>0.86755E+02</wgt>
<wgt id='2383'>0.86647E+02</wgt>
<wgt id='2384'>0.86648E+02</wgt>
<wgt id='2385'>0.86853E+02</wgt>
<wgt id='2386'>0.86690E+02</wgt>
<wgt id='2387'>0.86661E+02</wgt>
<wgt id='2388'>0.86691E+02</wgt>
<wgt id='2389'>0.86727E+02</wgt>
<wgt id='2390'>0.86821E+02</wgt>
<wgt id='2391'>0.86773E+02</wgt>
<wgt id='2392'>0.86735E+02</wgt>
<wgt id='2393'>0.86750E+02</wgt>
<wgt id='2394'>0.86802E+02</wgt>
<wgt id='2395'>0.86755E+02</wgt>
<wgt id='2396'>0.86732E+02</wgt>
<wgt id='2397'>0.86726E+02</wgt>
<wgt id='2398'>0.86696E+02</wgt>
<wgt id='2399'>0.86748E+02</wgt>
<wgt id='2400'>0.86792E+02</wgt>
<wgt id='2401'>0.84422E+02</wgt>
<wgt id='2402'>0.89531E+02</wgt>
<wgt id='2500'>0.82657E+02</wgt>
<wgt id='2501'>0.87728E+02</wgt>
<wgt id='2600'>0.79032E+02</wgt>
<wgt id='2601'>0.78750E+02</wgt>
<wgt id='2602'>0.79161E+02</wgt>
<wgt id='2603'>0.79027E+02</wgt>
<wgt id='2604'>0.79131E+02</wgt>
<wgt id='2605'>0.78940E+02</wgt>
<wgt id='2606'>0.79101E+02</wgt>
<wgt id='2607'>0.79105E+02</wgt>
<wgt id='2608'>0.79173E+02</wgt>
<wgt id='2609'>0.78962E+02</wgt>
<wgt id='2610'>0.78970E+02</wgt>
<wgt id='2611'>0.79020E+02</wgt>
<wgt id='2612'>0.79014E+02</wgt>
<wgt id='2613'>0.79057E+02</wgt>
<wgt id='2614'>0.78948E+02</wgt>
<wgt id='2615'>0.78871E+02</wgt>
<wgt id='2616'>0.79101E+02</wgt>
<wgt id='2617'>0.78835E+02</wgt>
<wgt id='2618'>0.79078E+02</wgt>
<wgt id='2619'>0.79110E+02</wgt>
<wgt id='2620'>0.78843E+02</wgt>
<wgt id='2621'>0.79178E+02</wgt>
<wgt id='2622'>0.79401E+02</wgt>
<wgt id='2623'>0.78995E+02</wgt>
<wgt id='2624'>0.78971E+02</wgt>
<wgt id='2625'>0.79176E+02</wgt>
<wgt id='2626'>0.79086E+02</wgt>
<wgt id='2627'>0.79171E+02</wgt>
<wgt id='2628'>0.78980E+02</wgt>
<wgt id='2629'>0.79138E+02</wgt>
<wgt id='2630'>0.79273E+02</wgt>
<wgt id='2631'>0.78894E+02</wgt>
<wgt id='2632'>0.78854E+02</wgt>
<wgt id='2633'>0.78943E+02</wgt>
<wgt id='2634'>0.78868E+02</wgt>
<wgt id='2635'>0.78872E+02</wgt>
<wgt id='2636'>0.79095E+02</wgt>
<wgt id='2637'>0.79030E+02</wgt>
<wgt id='2638'>0.78968E+02</wgt>
<wgt id='2639'>0.79050E+02</wgt>
<wgt id='2640'>0.79011E+02</wgt>
<wgt id='2641'>0.78976E+02</wgt>
<wgt id='2642'>0.79030E+02</wgt>
<wgt id='2643'>0.78952E+02</wgt>
<wgt id='2644'>0.79028E+02</wgt>
<wgt id='2645'>0.78997E+02</wgt>
<wgt id='2646'>0.79072E+02</wgt>
<wgt id='2647'>0.79007E+02</wgt>
<wgt id='2648'>0.79014E+02</wgt>
<wgt id='2649'>0.79037E+02</wgt>
<wgt id='2650'>0.79053E+02</wgt>
<wgt id='2651'>0.77507E+02</wgt>
<wgt id='2652'>0.80195E+02</wgt>
<wgt id='2700'>0.76228E+02</wgt>
<wgt id='2701'>0.77507E+02</wgt>
<wgt id='2702'>0.78330E+02</wgt>
<wgt id='2703'>0.79729E+02</wgt>
<wgt id='2704'>0.80195E+02</wgt>
<wgt id='2705'>0.81783E+02</wgt>
<wgt id='2800'>0.81209E+02</wgt>
<wgt id='4000'>0.83186E+02</wgt>
<wgt id='4001'>0.83405E+02</wgt>
<wgt id='4002'>0.83177E+02</wgt>
<wgt id='4003'>0.82386E+02</wgt>
<wgt id='4004'>0.84156E+02</wgt>
<wgt id='4005'>0.83526E+02</wgt>
<wgt id='4006'>0.83053E+02</wgt>
<wgt id='4007'>0.83589E+02</wgt>
<wgt id='4008'>0.82847E+02</wgt>
<wgt id='4009'>0.82609E+02</wgt>
<wgt id='4010'>0.83361E+02</wgt>
<wgt id='4011'>0.83810E+02</wgt>
<wgt id='4012'>0.82424E+02</wgt>
<wgt id='4013'>0.83287E+02</wgt>
<wgt id='4014'>0.83225E+02</wgt>
<wgt id='4015'>0.83444E+02</wgt>
<wgt id='4016'>0.84072E+02</wgt>
<wgt id='4017'>0.83262E+02</wgt>
<wgt id='4018'>0.83129E+02</wgt>
<wgt id='4019'>0.83104E+02</wgt>
<wgt id='4020'>0.83426E+02</wgt>
<wgt id='4021'>0.83451E+02</wgt>
<wgt id='4022'>0.82722E+02</wgt>
<wgt id='4023'>0.83617E+02</wgt>
<wgt id='4024'>0.83532E+02</wgt>
<wgt id='4025'>0.83090E+02</wgt>
<wgt id='4026'>0.83583E+02</wgt>
<wgt id='4027'>0.84025E+02</wgt>
<wgt id='4028'>0.82482E+02</wgt>
<wgt id='4029'>0.84386E+02</wgt>
<wgt id='4030'>0.82108E+02</wgt>
<wgt id='4031'>0.83075E+02</wgt>
<wgt id='4032'>0.84692E+02</wgt>
<wgt id='4033'>0.83965E+02</wgt>
<wgt id='4034'>0.82485E+02</wgt>
<wgt id='4035'>0.83521E+02</wgt>
<wgt id='4036'>0.82920E+02</wgt>
<wgt id='4037'>0.85964E+02</wgt>
<wgt id='4038'>0.81097E+02</wgt>
<wgt id='4039'>0.84971E+02</wgt>
<wgt id='4040'>0.81568E+02</wgt>
<wgt id='4041'>0.83759E+02</wgt>
<wgt id='4042'>0.82567E+02</wgt>
<wgt id='4043'>0.83199E+02</wgt>
<wgt id='4044'>0.82335E+02</wgt>
<wgt id='4045'>0.83227E+02</wgt>
<wgt id='4046'>0.83179E+02</wgt>
<wgt id='4047'>0.83642E+02</wgt>
<wgt id='4048'>0.83293E+02</wgt>
<wgt id='4049'>0.83278E+02</wgt>
<wgt id='4050'>0.83160E+02</wgt>
<wgt id='4051'>0.83348E+02</wgt>
<wgt id='4052'>0.83286E+02</wgt>
<wgt id='4053'>0.82927E+02</wgt>
<wgt id='4054'>0.82811E+02</wgt>
<wgt id='4055'>0.83613E+02</wgt>
<wgt id='4056'>0.82735E+02</wgt>
<wgt id='4057'>0.82499E+02</wgt>
<wgt id='4058'>0.83659E+02</wgt>
<wgt id='4100'>0.83638E+02</wgt>
<wgt id='4101'>0.83371E+02</wgt>
<wgt id='4102'>0.83064E+02</wgt>
<wgt id='4103'>0.82980E+02</wgt>
<wgt id='4200'>0.81440E+02</wgt>
<wgt id='4201'>0.81346E+02</wgt>
<wgt id='4202'>0.81684E+02</wgt>
<wgt id='4203'>0.81081E+02</wgt>
<wgt id='4204'>0.81581E+02</wgt>
<wgt id='4205'>0.81412E+02</wgt>
<wgt id='4206'>0.81656E+02</wgt>
<wgt id='4207'>0.82088E+02</wgt>
<wgt id='4208'>0.81036E+02</wgt>
<wgt id='4209'>0.81118E+02</wgt>
<wgt id='4210'>0.81676E+02</wgt>
<wgt id='4211'>0.81985E+02</wgt>
<wgt id='4212'>0.81012E+02</wgt>
<wgt id='4213'>0.81572E+02</wgt>
<wgt id='4214'>0.81206E+02</wgt>
<wgt id='4215'>0.81397E+02</wgt>
<wgt id='4216'>0.81686E+02</wgt>
<wgt id='4217'>0.81442E+02</wgt>
<wgt id='4218'>0.81376E+02</wgt>
<wgt id='4219'>0.81195E+02</wgt>
<wgt id='4220'>0.81721E+02</wgt>
<wgt id='4221'>0.81092E+02</wgt>
<wgt id='4222'>0.82074E+02</wgt>
<wgt id='4223'>0.80394E+02</wgt>
<wgt id='4224'>0.81371E+02</wgt>
<wgt id='4225'>0.80674E+02</wgt>
<wgt id='4226'>0.82527E+02</wgt>
<wgt id='4227'>0.82116E+02</wgt>
<wgt id='4228'>0.80865E+02</wgt>
<wgt id='4229'>0.80031E+02</wgt>
<wgt id='4230'>0.82626E+02</wgt>
<wgt id='4231'>0.81751E+02</wgt>
<wgt id='4232'>0.80904E+02</wgt>
<wgt id='4233'>0.81547E+02</wgt>
<wgt id='4234'>0.80759E+02</wgt>
<wgt id='4235'>0.82348E+02</wgt>
<wgt id='4236'>0.80503E+02</wgt>
<wgt id='4237'>0.82849E+02</wgt>
<wgt id='4238'>0.79428E+02</wgt>
<wgt id='4239'>0.80986E+02</wgt>
<wgt id='4240'>0.81527E+02</wgt>
<wgt id='4241'>0.81563E+02</wgt>
<wgt id='4242'>0.81279E+02</wgt>
<wgt id='4243'>0.81808E+02</wgt>
<wgt id='4244'>0.81176E+02</wgt>
<wgt id='4245'>0.81488E+02</wgt>
<wgt id='4246'>0.81012E+02</wgt>
<wgt id='4247'>0.80761E+02</wgt>
<wgt id='4248'>0.81783E+02</wgt>
<wgt id='4249'>0.82468E+02</wgt>
<wgt id='4250'>0.80209E+02</wgt>
<wgt id='4251'>0.82381E+02</wgt>
<wgt id='4252'>0.80782E+02</wgt>
<wgt id='4253'>0.81876E+02</wgt>
<wgt id='4254'>0.80711E+02</wgt>
<wgt id='4255'>0.82950E+02</wgt>
<wgt id='4256'>0.80666E+02</wgt>
<wgt id='4257'>0.80007E+02</wgt>
<wgt id='4258'>0.81857E+02</wgt>
<wgt id='4300'>0.82194E+02</wgt>
<wgt id='4301'>0.83136E+02</wgt>
<wgt id='5000'>0.82954E+02</wgt>
<wgt id='5001'>0.82996E+02</wgt>
<wgt id='5002'>0.82899E+02</wgt>
<wgt id='5003'>0.82973E+02</wgt>
<wgt id='5004'>0.82936E+02</wgt>
<wgt id='5005'>0.82960E+02</wgt>
<wgt id='5006'>0.82944E+02</wgt>
<wgt id='5007'>0.83050E+02</wgt>
<wgt id='5008'>0.82876E+02</wgt>
<wgt id='5009'>0.83047E+02</wgt>
<wgt id='5010'>0.82857E+02</wgt>
<wgt id='5011'>0.83217E+02</wgt>
<wgt id='5012'>0.82700E+02</wgt>
<wgt id='5013'>0.83058E+02</wgt>
<wgt id='5014'>0.82880E+02</wgt>
<wgt id='5015'>0.82542E+02</wgt>
<wgt id='5016'>0.82542E+02</wgt>
<wgt id='5017'>0.83321E+02</wgt>
<wgt id='5018'>0.82706E+02</wgt>
<wgt id='5019'>0.83260E+02</wgt>
<wgt id='5020'>0.82534E+02</wgt>
<wgt id='5021'>0.83059E+02</wgt>
<wgt id='5022'>0.82787E+02</wgt>
<wgt id='5023'>0.82891E+02</wgt>
<wgt id='5024'>0.83104E+02</wgt>
<wgt id='5025'>0.82724E+02</wgt>
<wgt id='5026'>0.83210E+02</wgt>
<wgt id='5027'>0.83013E+02</wgt>
<wgt id='5028'>0.82794E+02</wgt>
<wgt id='5029'>0.83988E+02</wgt>
<wgt id='5030'>0.82372E+02</wgt>
<wgt id='5031'>0.82364E+02</wgt>
<wgt id='5032'>0.84755E+02</wgt>
<wgt id='5033'>0.82881E+02</wgt>
<wgt id='5034'>0.83032E+02</wgt>
<wgt id='5035'>0.82965E+02</wgt>
<wgt id='5036'>0.82940E+02</wgt>
<wgt id='5037'>0.82677E+02</wgt>
<wgt id='5038'>0.83110E+02</wgt>
<wgt id='5039'>0.83140E+02</wgt>
<wgt id='5040'>0.82494E+02</wgt>
<wgt id='5041'>0.82660E+02</wgt>
<wgt id='5042'>0.83262E+02</wgt>
<wgt id='5043'>0.83139E+02</wgt>
<wgt id='5044'>0.82831E+02</wgt>
<wgt id='5045'>0.83235E+02</wgt>
<wgt id='5046'>0.82430E+02</wgt>
<wgt id='5047'>0.83054E+02</wgt>
<wgt id='5048'>0.82519E+02</wgt>
<wgt id='5049'>0.82847E+02</wgt>
<wgt id='5050'>0.83211E+02</wgt>
<wgt id='5051'>0.83218E+02</wgt>
<wgt id='5052'>0.82770E+02</wgt>
<wgt id='5053'>0.83151E+02</wgt>
<wgt id='5054'>0.83127E+02</wgt>
<wgt id='5055'>0.83004E+02</wgt>
<wgt id='5056'>0.83030E+02</wgt>
<wgt id='5057'>0.82572E+02</wgt>
<wgt id='5058'>0.83222E+02</wgt>
<wgt id='5059'>0.82800E+02</wgt>
<wgt id='5060'>0.83047E+02</wgt>
<wgt id='5061'>0.83186E+02</wgt>
<wgt id='5062'>0.83217E+02</wgt>
<wgt id='5063'>0.83232E+02</wgt>
<wgt id='5064'>0.83069E+02</wgt>
<wgt id='5100'>0.82954E+02</wgt>
<wgt id='5101'>0.82944E+02</wgt>
<wgt id='6000'>0.82082E+02</wgt>
<wgt id='6001'>0.81568E+02</wgt>
<wgt id='6002'>0.81388E+02</wgt>
<wgt id='6003'>0.81811E+02</wgt>
<wgt id='6004'>0.82471E+02</wgt>
<wgt id='6005'>0.81515E+02</wgt>
<wgt id='6006'>0.82028E+02</wgt>
<wgt id='6007'>0.81466E+02</wgt>
<wgt id='6008'>0.82403E+02</wgt>
<wgt id='6009'>0.81848E+02</wgt>
<wgt id='6010'>0.82272E+02</wgt>
<wgt id='6011'>0.82054E+02</wgt>
<wgt id='6012'>0.82260E+02</wgt>
<wgt id='6013'>0.81591E+02</wgt>
<wgt id='6014'>0.81695E+02</wgt>
<wgt id='6015'>0.81321E+02</wgt>
<wgt id='6016'>0.82569E+02</wgt>
<wgt id='6017'>0.81621E+02</wgt>
<wgt id='6018'>0.81401E+02</wgt>
<wgt id='6019'>0.82166E+02</wgt>
<wgt id='6020'>0.82280E+02</wgt>
<wgt id='6021'>0.81940E+02</wgt>
<wgt id='6022'>0.82272E+02</wgt>
<wgt id='6023'>0.82008E+02</wgt>
<wgt id='6024'>0.82177E+02</wgt>
<wgt id='6025'>0.82674E+02</wgt>
<wgt id='6026'>0.81910E+02</wgt>
<wgt id='6027'>0.82130E+02</wgt>
<wgt id='6028'>0.81582E+02</wgt>
<wgt id='6029'>0.81816E+02</wgt>
<wgt id='6030'>0.81469E+02</wgt>
<wgt id='6031'>0.81804E+02</wgt>
<wgt id='6032'>0.82036E+02</wgt>
<wgt id='6033'>0.81964E+02</wgt>
<wgt id='6034'>0.82464E+02</wgt>
<wgt id='6035'>0.82150E+02</wgt>
<wgt id='6036'>0.83084E+02</wgt>
<wgt id='6037'>0.82069E+02</wgt>
<wgt id='6038'>0.81986E+02</wgt>
<wgt id='6039'>0.82331E+02</wgt>
<wgt id='6040'>0.82084E+02</wgt>
<wgt id='6041'>0.80802E+02</wgt>
<wgt id='6042'>0.83472E+02</wgt>
<wgt id='7000'>0.80847E+02</wgt>
<wgt id='7001'>0.80542E+02</wgt>
<wgt id='7002'>0.80709E+02</wgt>
<wgt id='7003'>0.80626E+02</wgt>
<wgt id='7004'>0.80624E+02</wgt>
<wgt id='7005'>0.80702E+02</wgt>
<wgt id='7006'>0.80548E+02</wgt>
<wgt id='7007'>0.81092E+02</wgt>
<wgt id='7008'>0.80171E+02</wgt>
<wgt id='7009'>0.80252E+02</wgt>
<wgt id='7010'>0.81011E+02</wgt>
<wgt id='7011'>0.80912E+02</wgt>
<wgt id='7012'>0.80346E+02</wgt>
<wgt id='7013'>0.80564E+02</wgt>
<wgt id='7014'>0.80682E+02</wgt>
<wgt id='7015'>0.80795E+02</wgt>
<wgt id='7016'>0.80302E+02</wgt>
<wgt id='7017'>0.80487E+02</wgt>
<wgt id='7018'>0.80770E+02</wgt>
<wgt id='7019'>0.80966E+02</wgt>
<wgt id='7020'>0.80301E+02</wgt>
<wgt id='7021'>0.81744E+02</wgt>
<wgt id='7022'>0.79538E+02</wgt>
<wgt id='7023'>0.79520E+02</wgt>
<wgt id='7024'>0.81737E+02</wgt>
<wgt id='7025'>0.79041E+02</wgt>
<wgt id='7026'>0.82135E+02</wgt>
<wgt id='7027'>0.79937E+02</wgt>
<wgt id='7028'>0.81396E+02</wgt>
<wgt id='8000'>0.80773E+02</wgt>
<wgt id='8001'>0.80763E+02</wgt>
<wgt id='8002'>0.80798E+02</wgt>
<wgt id='8003'>0.80774E+02</wgt>
<wgt id='8004'>0.80771E+02</wgt>
<wgt id='8005'>0.80612E+02</wgt>
<wgt id='8006'>0.80871E+02</wgt>
<wgt id='8007'>0.80939E+02</wgt>
<wgt id='8008'>0.80952E+02</wgt>
<wgt id='8009'>0.81123E+02</wgt>
<wgt id='8010'>0.80678E+02</wgt>
<wgt id='8011'>0.80807E+02</wgt>
<wgt id='8012'>0.80480E+02</wgt>
<wgt id='8013'>0.80600E+02</wgt>
<wgt id='8014'>0.80985E+02</wgt>
<wgt id='8015'>0.80717E+02</wgt>
<wgt id='8016'>0.80900E+02</wgt>
<wgt id='8017'>0.80892E+02</wgt>
<wgt id='8018'>0.81086E+02</wgt>
<wgt id='8019'>0.80610E+02</wgt>
<wgt id='8020'>0.81079E+02</wgt>
<wgt id='8021'>0.80609E+02</wgt>
<wgt id='8022'>0.81325E+02</wgt>
<wgt id='8023'>0.80464E+02</wgt>
<wgt id='8024'>0.80171E+02</wgt>
<wgt id='8025'>0.80329E+02</wgt>
<wgt id='8026'>0.80773E+02</wgt>
<wgt id='8027'>0.80931E+02</wgt>
<wgt id='8028'>0.80798E+02</wgt>
<wgt id='8029'>0.82338E+02</wgt>
<wgt id='3000'>0.81104E+02</wgt>
<wgt id='3001'>0.82472E+02</wgt>
<wgt id='3002'>0.80650E+02</wgt>
<wgt id='3003'>0.82885E+02</wgt>
<wgt id='3004'>0.81943E+02</wgt>
<wgt id='3005'>0.82475E+02</wgt>
<wgt id='3006'>0.81164E+02</wgt>
<wgt id='3007'>0.78790E+02</wgt>
<wgt id='3008'>0.78541E+02</wgt>
<wgt id='3009'>0.80319E+02</wgt>
<wgt id='3010'>0.85569E+02</wgt>
<wgt id='3011'>0.82349E+02</wgt>
<wgt id='3012'>0.78937E+02</wgt>
<wgt id='3013'>0.80396E+02</wgt>
<wgt id='3014'>0.80376E+02</wgt>
<wgt id='3015'>0.79029E+02</wgt>
<wgt id='3016'>0.80425E+02</wgt>
<wgt id='3017'>0.81435E+02</wgt>
<wgt id='3018'>0.79473E+02</wgt>
<wgt id='3019'>0.80129E+02</wgt>
<wgt id='3020'>0.80634E+02</wgt>
<wgt id='3021'>0.79465E+02</wgt>
<wgt id='3022'>0.79401E+02</wgt>
<wgt id='3023'>0.79689E+02</wgt>
<wgt id='3024'>0.81070E+02</wgt>
<wgt id='3025'>0.79300E+02</wgt>
<wgt id='3026'>0.80206E+02</wgt>
<wgt id='3027'>0.82992E+02</wgt>
<wgt id='3028'>0.78573E+02</wgt>
<wgt id='3029'>0.81101E+02</wgt>
<wgt id='3030'>0.80175E+02</wgt>
<wgt id='3031'>0.84428E+02</wgt>
<wgt id='3032'>0.78291E+02</wgt>
<wgt id='3033'>0.79603E+02</wgt>
<wgt id='3034'>0.82068E+02</wgt>
<wgt id='3035'>0.84286E+02</wgt>
<wgt id='3036'>0.81400E+02</wgt>
<wgt id='3037'>0.80518E+02</wgt>
<wgt id='3038'>0.81926E+02</wgt>
<wgt id='3039'>0.79907E+02</wgt>
<wgt id='3040'>0.80684E+02</wgt>
<wgt id='3041'>0.81638E+02</wgt>
<wgt id='3042'>0.81210E+02</wgt>
<wgt id='3043'>0.82474E+02</wgt>
<wgt id='3044'>0.82314E+02</wgt>
<wgt id='3045'>0.81529E+02</wgt>
<wgt id='3046'>0.80934E+02</wgt>
<wgt id='3047'>0.81820E+02</wgt>
<wgt id='3048'>0.82330E+02</wgt>
<wgt id='3049'>0.81033E+02</wgt>
<wgt id='3050'>0.83495E+02</wgt>
<wgt id='3051'>0.79947E+02</wgt>
<wgt id='3052'>0.79833E+02</wgt>
<wgt id='3053'>0.82667E+02</wgt>
<wgt id='3054'>0.78700E+02</wgt>
<wgt id='3055'>0.81385E+02</wgt>
<wgt id='3056'>0.80555E+02</wgt>
<wgt id='3057'>0.79622E+02</wgt>
<wgt id='3058'>0.82775E+02</wgt>
<wgt id='3059'>0.79859E+02</wgt>
<wgt id='3060'>0.80199E+02</wgt>
<wgt id='3061'>0.80425E+02</wgt>
<wgt id='3062'>0.82069E+02</wgt>
<wgt id='3063'>0.81713E+02</wgt>
<wgt id='3064'>0.82753E+02</wgt>
<wgt id='3065'>0.78991E+02</wgt>
<wgt id='3066'>0.82935E+02</wgt>
<wgt id='3067'>0.80754E+02</wgt>
<wgt id='3068'>0.79983E+02</wgt>
<wgt id='3069'>0.80301E+02</wgt>
<wgt id='3070'>0.82050E+02</wgt>
<wgt id='3071'>0.81154E+02</wgt>
<wgt id='3072'>0.82071E+02</wgt>
<wgt id='3073'>0.80726E+02</wgt>
<wgt id='3074'>0.80215E+02</wgt>
<wgt id='3075'>0.81524E+02</wgt>
<wgt id='3076'>0.83828E+02</wgt>
<wgt id='3077'>0.82263E+02</wgt>
<wgt id='3078'>0.79716E+02</wgt>
<wgt id='3079'>0.81249E+02</wgt>
<wgt id='3080'>0.84358E+02</wgt>
<wgt id='3081'>0.82128E+02</wgt>
<wgt id='3082'>0.80425E+02</wgt>
<wgt id='3083'>0.81298E+02</wgt>
<wgt id='3084'>0.79914E+02</wgt>
<wgt id='3085'>0.80924E+02</wgt>
<wgt id='3086'>0.82789E+02</wgt>
<wgt id='3087'>0.79996E+02</wgt>
<wgt id='3088'>0.81279E+02</wgt>
<wgt id='3089'>0.83787E+02</wgt>
<wgt id='3090'>0.80370E+02</wgt>
<wgt id='3091'>0.80547E+02</wgt>
<wgt id='3092'>0.81577E+02</wgt>
<wgt id='3093'>0.81253E+02</wgt>
<wgt id='3094'>0.81879E+02</wgt>
<wgt id='3095'>0.78415E+02</wgt>
<wgt id='3096'>0.80662E+02</wgt>
<wgt id='3097'>0.85417E+02</wgt>
<wgt id='3098'>0.80974E+02</wgt>
<wgt id='3099'>0.79410E+02</wgt>
<wgt id='3100'>0.80365E+02</wgt>
<wgt id='3200'>0.79154E+02</wgt>
<wgt id='3201'>0.78495E+02</wgt>
<wgt id='3202'>0.77014E+02</wgt>
<wgt id='3203'>0.79536E+02</wgt>
<wgt id='3204'>0.78743E+02</wgt>
<wgt id='3205'>0.79363E+02</wgt>
<wgt id='3206'>0.80548E+02</wgt>
<wgt id='3207'>0.80014E+02</wgt>
<wgt id='3208'>0.79178E+02</wgt>
<wgt id='3209'>0.79081E+02</wgt>
<wgt id='3210'>0.79349E+02</wgt>
<wgt id='3211'>0.79379E+02</wgt>
<wgt id='3212'>0.79481E+02</wgt>
<wgt id='3213'>0.79890E+02</wgt>
<wgt id='3214'>0.78775E+02</wgt>
<wgt id='3215'>0.79148E+02</wgt>
<wgt id='3216'>0.79666E+02</wgt>
<wgt id='3217'>0.79739E+02</wgt>
<wgt id='3218'>0.80592E+02</wgt>
<wgt id='3219'>0.79039E+02</wgt>
<wgt id='3220'>0.78078E+02</wgt>
<wgt id='3221'>0.78898E+02</wgt>
<wgt id='3222'>0.79802E+02</wgt>
<wgt id='3223'>0.80104E+02</wgt>
<wgt id='3224'>0.78845E+02</wgt>
<wgt id='3225'>0.80073E+02</wgt>
<wgt id='3226'>0.77960E+02</wgt>
<wgt id='3227'>0.78084E+02</wgt>
<wgt id='3228'>0.78666E+02</wgt>
<wgt id='3229'>0.80312E+02</wgt>
<wgt id='3230'>0.79262E+02</wgt>
<wgt id='3231'>0.79404E+02</wgt>
<wgt id='3232'>0.79454E+02</wgt>
<wgt id='3233'>0.79137E+02</wgt>
<wgt id='3234'>0.77740E+02</wgt>
<wgt id='3235'>0.79308E+02</wgt>
<wgt id='3236'>0.79832E+02</wgt>
<wgt id='3237'>0.79515E+02</wgt>
<wgt id='3238'>0.78455E+02</wgt>
<wgt id='3239'>0.78456E+02</wgt>
<wgt id='3240'>0.77727E+02</wgt>
<wgt id='3241'>0.80026E+02</wgt>
<wgt id='3242'>0.79405E+02</wgt>
<wgt id='3243'>0.79872E+02</wgt>
<wgt id='3244'>0.79699E+02</wgt>
<wgt id='3245'>0.79843E+02</wgt>
<wgt id='3246'>0.77429E+02</wgt>
<wgt id='3247'>0.77896E+02</wgt>
<wgt id='3248'>0.78928E+02</wgt>
<wgt id='3249'>0.77973E+02</wgt>
<wgt id='3250'>0.79009E+02</wgt>
<wgt id='3251'>0.78695E+02</wgt>
<wgt id='3252'>0.80201E+02</wgt>
<wgt id='3253'>0.79487E+02</wgt>
<wgt id='3254'>0.78999E+02</wgt>
<wgt id='3255'>0.77876E+02</wgt>
<wgt id='3256'>0.79247E+02</wgt>
<wgt id='3257'>0.79071E+02</wgt>
<wgt id='3258'>0.78166E+02</wgt>
<wgt id='3259'>0.77748E+02</wgt>
<wgt id='3260'>0.78991E+02</wgt>
<wgt id='3261'>0.77965E+02</wgt>
<wgt id='3262'>0.80606E+02</wgt>
<wgt id='3263'>0.79583E+02</wgt>
<wgt id='3264'>0.79456E+02</wgt>
<wgt id='3265'>0.80044E+02</wgt>
<wgt id='3266'>0.79515E+02</wgt>
<wgt id='3267'>0.79292E+02</wgt>
<wgt id='3268'>0.78035E+02</wgt>
<wgt id='3269'>0.78825E+02</wgt>
<wgt id='3270'>0.81076E+02</wgt>
<wgt id='3271'>0.79083E+02</wgt>
<wgt id='3272'>0.79197E+02</wgt>
<wgt id='3273'>0.79288E+02</wgt>
<wgt id='3274'>0.78403E+02</wgt>
<wgt id='3275'>0.80120E+02</wgt>
<wgt id='3276'>0.78345E+02</wgt>
<wgt id='3277'>0.79229E+02</wgt>
<wgt id='3278'>0.80204E+02</wgt>
<wgt id='3279'>0.79346E+02</wgt>
<wgt id='3280'>0.79056E+02</wgt>
<wgt id='3281'>0.79951E+02</wgt>
<wgt id='3282'>0.79369E+02</wgt>
<wgt id='3283'>0.79447E+02</wgt>
<wgt id='3284'>0.78289E+02</wgt>
<wgt id='3285'>0.79430E+02</wgt>
<wgt id='3286'>0.77933E+02</wgt>
<wgt id='3287'>0.81405E+02</wgt>
<wgt id='3288'>0.78173E+02</wgt>
<wgt id='3289'>0.80203E+02</wgt>
<wgt id='3290'>0.77780E+02</wgt>
<wgt id='3291'>0.78578E+02</wgt>
<wgt id='3292'>0.79087E+02</wgt>
<wgt id='3293'>0.78958E+02</wgt>
<wgt id='3294'>0.79540E+02</wgt>
<wgt id='3295'>0.78987E+02</wgt>
<wgt id='3296'>0.79611E+02</wgt>
<wgt id='3297'>0.79472E+02</wgt>
<wgt id='3298'>0.77880E+02</wgt>
<wgt id='3299'>0.79728E+02</wgt>
<wgt id='3300'>0.80102E+02</wgt>
<wgt id='3301'>0.77507E+02</wgt>
<wgt id='3302'>0.80195E+02</wgt>
<wgt id='3400'>0.78164E+02</wgt>
<wgt id='3401'>0.78595E+02</wgt>
<wgt id='3402'>0.76378E+02</wgt>
<wgt id='3403'>0.78869E+02</wgt>
<wgt id='3404'>0.79517E+02</wgt>
<wgt id='3405'>0.78518E+02</wgt>
<wgt id='3406'>0.79703E+02</wgt>
<wgt id='3407'>0.78281E+02</wgt>
<wgt id='3408'>0.78685E+02</wgt>
<wgt id='3409'>0.78366E+02</wgt>
<wgt id='3410'>0.78867E+02</wgt>
<wgt id='3411'>0.79776E+02</wgt>
<wgt id='3412'>0.79009E+02</wgt>
<wgt id='3413'>0.77819E+02</wgt>
<wgt id='3414'>0.77609E+02</wgt>
<wgt id='3415'>0.78165E+02</wgt>
<wgt id='3416'>0.77765E+02</wgt>
<wgt id='3417'>0.78945E+02</wgt>
<wgt id='3418'>0.77471E+02</wgt>
<wgt id='3419'>0.77591E+02</wgt>
<wgt id='3420'>0.77741E+02</wgt>
<wgt id='3421'>0.77397E+02</wgt>
<wgt id='3422'>0.77619E+02</wgt>
<wgt id='3423'>0.79503E+02</wgt>
<wgt id='3424'>0.78552E+02</wgt>
<wgt id='3425'>0.77310E+02</wgt>
<wgt id='3426'>0.77419E+02</wgt>
<wgt id='3427'>0.76729E+02</wgt>
<wgt id='3428'>0.78349E+02</wgt>
<wgt id='3429'>0.77227E+02</wgt>
<wgt id='3430'>0.77666E+02</wgt>
<wgt id='3431'>0.78681E+02</wgt>
<wgt id='3432'>0.79581E+02</wgt>
<wgt id='3433'>0.77992E+02</wgt>
<wgt id='3434'>0.79539E+02</wgt>
<wgt id='3435'>0.79275E+02</wgt>
<wgt id='3436'>0.78016E+02</wgt>
<wgt id='3437'>0.79708E+02</wgt>
<wgt id='3438'>0.77626E+02</wgt>
<wgt id='3439'>0.76069E+02</wgt>
<wgt id='3440'>0.78629E+02</wgt>
<wgt id='3441'>0.78406E+02</wgt>
<wgt id='3442'>0.77640E+02</wgt>
<wgt id='3443'>0.78949E+02</wgt>
<wgt id='3444'>0.77066E+02</wgt>
<wgt id='3445'>0.77417E+02</wgt>
<wgt id='3446'>0.78446E+02</wgt>
<wgt id='3447'>0.78023E+02</wgt>
<wgt id='3448'>0.79860E+02</wgt>
<wgt id='3449'>0.78470E+02</wgt>
<wgt id='3450'>0.77456E+02</wgt>
<wgt id='3451'>0.79011E+02</wgt>
<wgt id='3452'>0.77687E+02</wgt>
<wgt id='3453'>0.76592E+02</wgt>
<wgt id='3454'>0.78309E+02</wgt>
<wgt id='3455'>0.78895E+02</wgt>
<wgt id='3456'>0.78318E+02</wgt>
<wgt id='3457'>0.78152E+02</wgt>
<wgt id='3458'>0.77499E+02</wgt>
<wgt id='3459'>0.78143E+02</wgt>
<wgt id='3460'>0.77899E+02</wgt>
<wgt id='3461'>0.77144E+02</wgt>
<wgt id='3462'>0.78590E+02</wgt>
<wgt id='3463'>0.77023E+02</wgt>
<wgt id='3464'>0.78176E+02</wgt>
<wgt id='3465'>0.79034E+02</wgt>
<wgt id='3466'>0.78921E+02</wgt>
<wgt id='3467'>0.77816E+02</wgt>
<wgt id='3468'>0.77422E+02</wgt>
<wgt id='3469'>0.76867E+02</wgt>
<wgt id='3470'>0.77400E+02</wgt>
<wgt id='3471'>0.77559E+02</wgt>
<wgt id='3472'>0.76264E+02</wgt>
<wgt id='3473'>0.80172E+02</wgt>
<wgt id='3474'>0.77230E+02</wgt>
<wgt id='3475'>0.78817E+02</wgt>
<wgt id='3476'>0.78013E+02</wgt>
<wgt id='3477'>0.76862E+02</wgt>
<wgt id='3478'>0.79377E+02</wgt>
<wgt id='3479'>0.77867E+02</wgt>
<wgt id='3480'>0.78917E+02</wgt>
<wgt id='3481'>0.79313E+02</wgt>
<wgt id='3482'>0.78502E+02</wgt>
<wgt id='3483'>0.78188E+02</wgt>
<wgt id='3484'>0.77208E+02</wgt>
<wgt id='3485'>0.77416E+02</wgt>
<wgt id='3486'>0.75894E+02</wgt>
<wgt id='3487'>0.76975E+02</wgt>
<wgt id='3488'>0.77969E+02</wgt>
<wgt id='3489'>0.76972E+02</wgt>
<wgt id='3490'>0.78998E+02</wgt>
<wgt id='3491'>0.80288E+02</wgt>
<wgt id='3492'>0.77608E+02</wgt>
<wgt id='3493'>0.80114E+02</wgt>
<wgt id='3494'>0.76486E+02</wgt>
<wgt id='3495'>0.79329E+02</wgt>
<wgt id='3496'>0.77207E+02</wgt>
<wgt id='3497'>0.77968E+02</wgt>
<wgt id='3498'>0.79770E+02</wgt>
<wgt id='3499'>0.77710E+02</wgt>
<wgt id='3500'>0.80148E+02</wgt>
</rwgt>
</event>
<event>
     13 322200  8.11039E+01  8.01457E+01 -1.00000E+00  1.26606E-01
      21    -1     0     0   503   504  0.000000000E+00  0.000000000E+00  5.422344822E+02  5.422344822E+02  0.000000000E+00  0.00000E+00  9.000E+00
      21    -1     0     0   504   505  0.000000000E+00  0.000000000E+00 -6.983844803E+02  6.983844803E+02  0.000000000E+00  0.00000E+00  9.000E+00
       6     2     1     2   502     0 -5.501919146E+01 -2.319931988E+02 -4.817609687E+01  2.981926595E+02  1.724817966E+02  0.00000E+00  9.000E+00
      -6     2     1     2     0   505 -2.567234877E+00  2.877348302E+02 -4.667409794E+02  5.748162619E+02  1.725359958E+02  0.00000E+00  9.000E+00
      21     1     1     2   503   502  5.758642634E+01 -5.574163139E+01  3.587670782E+02  3.676100411E+02  3.814697266E-06  0.00000E+00  9.000E+00
      24     2     3     3     0     0  3.262630403E+01 -1.096894957E+02 -4.810852379E+01  1.476418812E+02  7.992142299E+01  0.00000E+00  9.000E+00
       5     1     3     3   502     0 -8.764549549E+01 -1.223037031E+02 -6.757307611E-02  1.505507782E+02  5.060000000E+00  0.00000E+00 -1.000E+00
     -24     2     4     4     0     0 -3.247014396E+01  2.826823277E+02 -4.534016384E+02  5.413012895E+02  8.043899361E+01  0.00000E+00  9.000E+00
      -5     1     4     4     0   505  2.990290908E+01  5.052502464E+00 -1.333934103E+01  3.351497235E+01  5.060000000E+00  0.00000E+00  1.000E+00
     -15     1     6     6     0     0  3.036939792E+01 -1.192565047E+02 -5.582586666E+01  1.351447349E+02  1.777000000E+00  0.00000E+00  1.000E+00
      16     1     6     6     0     0  2.256906115E+00  9.567009002E+00  7.717342871E+00  1.249714637E+01  0.000000000E+00  0.00000E+00 -1.000E+00
      15     1     8     8     0     0 -3.053218110E+00  2.371031532E+02 -3.286643839E+02  4.052784998E+02  1.777000000E+00  0.00000E+00 -1.000E+00
     -16     1     8     8     0     0 -2.941692585E+01  4.557917451E+01 -1.247372545E+02  1.360227897E+02  0.000000000E+00  0.00000E+00  1.000E+00
#rwgt            1           1   439.23037484501492               10       25535           0
<rwgt>
<wgt id='1001'>0.81104E+02</wgt>
<wgt id='1002'>0.64936E+02</wgt>
<wgt id='1003'>0.99885E+02</wgt>
<wgt id='1004'>0.77064E+02</wgt>
<wgt id='1005'>0.63340E+02</wgt>
<wgt id='1006'>0.92965E+02</wgt>
<wgt id='1007'>0.83186E+02</wgt>
<wgt id='1008'>0.63840E+02</wgt>
<wgt id='1009'>0.10573E+03</wgt>
<wgt id='2000'>0.81104E+02</wgt>
<wgt id='2001'>0.80982E+02</wgt>
<wgt id='2002'>0.80935E+02</wgt>
<wgt id='2003'>0.81130E+02</wgt>
<wgt id='2004'>0.81266E+02</wgt>
<wgt id='2005'>0.80981E+02</wgt>
<wgt id='2006'>0.81269E+02</wgt>
<wgt id='2007'>0.81070E+02</wgt>
<wgt id='2008'>0.81125E+02</wgt>
<wgt id='2009'>0.81131E+02</wgt>
<wgt id='2010'>0.81031E+02</wgt>
<wgt id='2011'>0.81140E+02</wgt>
<wgt id='2012'>0.81231E+02</wgt>
<wgt id='2013'>0.81284E+02</wgt>
<wgt id='2014'>0.81299E+02</wgt>
<wgt id='2015'>0.81201E+02</wgt>
<wgt id='2016'>0.81302E+02</wgt>
<wgt id='2017'>0.81282E+02</wgt>
<wgt id='2018'>0.80987E+02</wgt>
<wgt id='2019'>0.80733E+02</wgt>
<wgt id='2020'>0.81080E+02</wgt>
<wgt id='2021'>0.81038E+02</wgt>
<wgt id='2022'>0.81039E+02</wgt>
<wgt id='2023'>0.81427E+02</wgt>
<wgt id='2024'>0.80777E+02</wgt>
<wgt id='2025'>0.81131E+02</wgt>
<wgt id='2026'>0.80945E+02</wgt>
<wgt id='2027'>0.81053E+02</wgt>
<wgt id='2028'>0.81228E+02</wgt>
<wgt id='2029'>0.80895E+02</wgt>
<wgt id='2030'>0.81210E+02</wgt>
<wgt id='2031'>0.80724E+02</wgt>
<wgt id='2032'>0.81059E+02</wgt>
<wgt id='2033'>0.80988E+02</wgt>
<wgt id='2034'>0.80857E+02</wgt>
<wgt id='2035'>0.81158E+02</wgt>
<wgt id='2036'>0.81265E+02</wgt>
<wgt id='2037'>0.81047E+02</wgt>
<wgt id='2038'>0.80988E+02</wgt>
<wgt id='2039'>0.81057E+02</wgt>
<wgt id='2040'>0.81032E+02</wgt>
<wgt id='2041'>0.81029E+02</wgt>
<wgt id='2042'>0.81227E+02</wgt>
<wgt id='2043'>0.81061E+02</wgt>
<wgt id='2044'>0.81194E+02</wgt>
<wgt id='2045'>0.81088E+02</wgt>
<wgt id='2046'>0.81060E+02</wgt>
<wgt id='2047'>0.81108E+02</wgt>
<wgt id='2048'>0.81090E+02</wgt>
<wgt id='2049'>0.81032E+02</wgt>
<wgt id='2050'>0.81051E+02</wgt>
<wgt id='2051'>0.81080E+02</wgt>
<wgt id='2052'>0.81206E+02</wgt>
<wgt id='2053'>0.81093E+02</wgt>
<wgt id='2054'>0.81088E+02</wgt>
<wgt id='2055'>0.81085E+02</wgt>
<wgt id='2056'>0.81034E+02</wgt>
<wgt id='2057'>0.81136E+02</wgt>
<wgt id='2058'>0.81151E+02</wgt>
<wgt id='2059'>0.81098E+02</wgt>
<wgt id='2060'>0.81098E+02</wgt>
<wgt id='2061'>0.81080E+02</wgt>
<wgt id='2062'>0.81178E+02</wgt>
<wgt id='2063'>0.81121E+02</wgt>
<wgt id='2064'>0.81110E+02</wgt>
<wgt id='2065'>0.81180E+02</wgt>
<wgt id='2066'>0.81071E+02</wgt>
<wgt id='2067'>0.81103E+02</wgt>
<wgt id='2068'>0.81139E+02</wgt>
<wgt id='2069'>0.81104E+02</wgt>
<wgt id='2070'>0.81117E+02</wgt>
<wgt id='2071'>0.81086E+02</wgt>
<wgt id='2072'>0.81092E+02</wgt>
<wgt id='2073'>0.81122E+02</wgt>
<wgt id='2074'>0.81076E+02</wgt>
<wgt id='2075'>0.81089E+02</wgt>
<wgt id='2076'>0.81083E+02</wgt>
<wgt id='2077'>0.81154E+02</wgt>
<wgt id='2078'>0.81120E+02</wgt>
<wgt id='2079'>0.81082E+02</wgt>
<wgt id='2080'>0.81115E+02</wgt>
<wgt id='2081'>0.81092E+02</wgt>
<wgt id='2082'>0.81115E+02</wgt>
<wgt id='2083'>0.81148E+02</wgt>
<wgt id='2084'>0.81103E+02</wgt>
<wgt id='2085'>0.81111E+02</wgt>
<wgt id='2086'>0.81089E+02</wgt>
<wgt id='2087'>0.81116E+02</wgt>
<wgt id='2088'>0.81098E+02</wgt>
<wgt id='2089'>0.81084E+02</wgt>
<wgt id='2090'>0.81124E+02</wgt>
<wgt id='2091'>0.81106E+02</wgt>
<wgt id='2092'>0.81136E+02</wgt>
<wgt id='2093'>0.81083E+02</wgt>
<wgt id='2094'>0.81111E+02</wgt>
<wgt id='2095'>0.81129E+02</wgt>
<wgt id='2096'>0.81090E+02</wgt>
<wgt id='2097'>0.81121E+02</wgt>
<wgt id='2098'>0.81099E+02</wgt>
<wgt id='2099'>0.81116E+02</wgt>
<wgt id='2100'>0.81104E+02</wgt>
<wgt id='2101'>0.79584E+02</wgt>
<wgt id='2102'>0.83090E+02</wgt>
<wgt id='2200'>0.81206E+02</wgt>
<wgt id='2201'>0.72584E+02</wgt>
<wgt id='2202'>0.74463E+02</wgt>
<wgt id='2203'>0.76181E+02</wgt>
<wgt id='2204'>0.77590E+02</wgt>
<wgt id='2205'>0.80363E+02</wgt>
<wgt id='2206'>0.82262E+02</wgt>
<wgt id='2207'>0.84698E+02</wgt>
<wgt id='2208'>0.86497E+02</wgt>
<wgt id='2300'>0.84975E+02</wgt>
<wgt id='2301'>0.85058E+02</wgt>
<wgt id='2302'>0.84938E+02</wgt>
<wgt id='2303'>0.84892E+02</wgt>
<wgt id='2304'>0.85206E+02</wgt>
<wgt id='2305'>0.84963E+02</wgt>
<wgt id='2306'>0.84911E+02</wgt>
<wgt id='2307'>0.85039E+02</wgt>
<wgt id='2308'>0.84971E+02</wgt>
<wgt id='2309'>0.85142E+02</wgt>
<wgt id='2310'>0.84851E+02</wgt>
<wgt id='2311'>0.84802E+02</wgt>
<wgt id='2312'>0.84962E+02</wgt>
<wgt id='2313'>0.85156E+02</wgt>
<wgt id='2314'>0.84927E+02</wgt>
<wgt id='2315'>0.84780E+02</wgt>
<wgt id='2316'>0.85034E+02</wgt>
<wgt id='2317'>0.84912E+02</wgt>
<wgt id='2318'>0.85038E+02</wgt>
<wgt id='2319'>0.85046E+02</wgt>
<wgt id='2320'>0.85055E+02</wgt>
<wgt id='2321'>0.85079E+02</wgt>
<wgt id='2322'>0.84953E+02</wgt>
<wgt id='2323'>0.84945E+02</wgt>
<wgt id='2324'>0.84952E+02</wgt>
<wgt id='2325'>0.85047E+02</wgt>
<wgt id='2326'>0.84850E+02</wgt>
<wgt id='2327'>0.85043E+02</wgt>
<wgt id='2328'>0.84924E+02</wgt>
<wgt id='2329'>0.84763E+02</wgt>
<wgt id='2330'>0.85486E+02</wgt>
<wgt id='2331'>0.85220E+02</wgt>
<wgt id='2332'>0.84827E+02</wgt>
<wgt id='2333'>0.84906E+02</wgt>
<wgt id='2334'>0.84926E+02</wgt>
<wgt id='2335'>0.85013E+02</wgt>
<wgt id='2336'>0.85092E+02</wgt>
<wgt id='2337'>0.85080E+02</wgt>
<wgt id='2338'>0.85001E+02</wgt>
<wgt id='2339'>0.85218E+02</wgt>
<wgt id='2340'>0.85024E+02</wgt>
<wgt id='2341'>0.84959E+02</wgt>
<wgt id='2342'>0.84739E+02</wgt>
<wgt id='2343'>0.84715E+02</wgt>
<wgt id='2344'>0.85148E+02</wgt>
<wgt id='2345'>0.85113E+02</wgt>
<wgt id='2346'>0.85131E+02</wgt>
<wgt id='2347'>0.84923E+02</wgt>
<wgt id='2348'>0.85094E+02</wgt>
<wgt id='2349'>0.84910E+02</wgt>
<wgt id='2350'>0.84855E+02</wgt>
<wgt id='2351'>0.85223E+02</wgt>
<wgt id='2352'>0.84927E+02</wgt>
<wgt id='2353'>0.84916E+02</wgt>
<wgt id='2354'>0.84970E+02</wgt>
<wgt id='2355'>0.85033E+02</wgt>
<wgt id='2356'>0.84986E+02</wgt>
<wgt id='2357'>0.84942E+02</wgt>
<wgt id='2358'>0.84948E+02</wgt>
<wgt id='2359'>0.84952E+02</wgt>
<wgt id='2360'>0.85006E+02</wgt>
<wgt id='2361'>0.84982E+02</wgt>
<wgt id='2362'>0.84978E+02</wgt>
<wgt id='2363'>0.84991E+02</wgt>
<wgt id='2364'>0.84973E+02</wgt>
<wgt id='2365'>0.84967E+02</wgt>
<wgt id='2366'>0.84995E+02</wgt>
<wgt id='2367'>0.84931E+02</wgt>
<wgt id='2368'>0.84977E+02</wgt>
<wgt id='2369'>0.84923E+02</wgt>
<wgt id='2370'>0.84941E+02</wgt>
<wgt id='2371'>0.84980E+02</wgt>
<wgt id='2372'>0.84990E+02</wgt>
<wgt id='2373'>0.84950E+02</wgt>
<wgt id='2374'>0.85072E+02</wgt>
<wgt id='2375'>0.84984E+02</wgt>
<wgt id='2376'>0.84999E+02</wgt>
<wgt id='2377'>0.84987E+02</wgt>
<wgt id='2378'>0.85018E+02</wgt>
<wgt id='2379'>0.84931E+02</wgt>
<wgt id='2380'>0.84933E+02</wgt>
<wgt id='2381'>0.84955E+02</wgt>
<wgt id='2382'>0.84936E+02</wgt>
<wgt id='2383'>0.84990E+02</wgt>
<wgt id='2384'>0.84966E+02</wgt>
<wgt id='2385'>0.84987E+02</wgt>
<wgt id='2386'>0.84954E+02</wgt>
<wgt id='2387'>0.84948E+02</wgt>
<wgt id='2388'>0.84962E+02</wgt>
<wgt id='2389'>0.84979E+02</wgt>
<wgt id='2390'>0.84958E+02</wgt>
<wgt id='2391'>0.84965E+02</wgt>
<wgt id='2392'>0.84983E+02</wgt>
<wgt id='2393'>0.84990E+02</wgt>
<wgt id='2394'>0.84996E+02</wgt>
<wgt id='2395'>0.84984E+02</wgt>
<wgt id='2396'>0.84967E+02</wgt>
<wgt id='2397'>0.84953E+02</wgt>
<wgt id='2398'>0.84982E+02</wgt>
<wgt id='2399'>0.84994E+02</wgt>
<wgt id='2400'>0.84987E+02</wgt>
<wgt id='2401'>0.83225E+02</wgt>
<wgt id='2402'>0.86783E+02</wgt>
<wgt id='2500'>0.82465E+02</wgt>
<wgt id='2501'>0.87405E+02</wgt>
<wgt id='2600'>0.78593E+02</wgt>
<wgt id='2601'>0.78541E+02</wgt>
<wgt id='2602'>0.78481E+02</wgt>
<wgt id='2603'>0.78576E+02</wgt>
<wgt id='2604'>0.78540E+02</wgt>
<wgt id='2605'>0.78478E+02</wgt>
<wgt id='2606'>0.78571E+02</wgt>
<wgt id='2607'>0.78618E+02</wgt>
<wgt id='2608'>0.78628E+02</wgt>
<wgt id='2609'>0.78488E+02</wgt>
<wgt id='2610'>0.78535E+02</wgt>
<wgt id='2611'>0.78534E+02</wgt>
<wgt id='2612'>0.78774E+02</wgt>
<wgt id='2613'>0.78580E+02</wgt>
<wgt id='2614'>0.78542E+02</wgt>
<wgt id='2615'>0.78397E+02</wgt>
<wgt id='2616'>0.78601E+02</wgt>
<wgt id='2617'>0.78383E+02</wgt>
<wgt id='2618'>0.78451E+02</wgt>
<wgt id='2619'>0.78664E+02</wgt>
<wgt id='2620'>0.78532E+02</wgt>
<wgt id='2621'>0.78651E+02</wgt>
<wgt id='2622'>0.78869E+02</wgt>
<wgt id='2623'>0.78577E+02</wgt>
<wgt id='2624'>0.78574E+02</wgt>
<wgt id='2625'>0.78590E+02</wgt>
<wgt id='2626'>0.78597E+02</wgt>
<wgt id='2627'>0.78625E+02</wgt>
<wgt id='2628'>0.78593E+02</wgt>
<wgt id='2629'>0.78631E+02</wgt>
<wgt id='2630'>0.78681E+02</wgt>
<wgt id='2631'>0.78490E+02</wgt>
<wgt id='2632'>0.78551E+02</wgt>
<wgt id='2633'>0.78544E+02</wgt>
<wgt id='2634'>0.78507E+02</wgt>
<wgt id='2635'>0.78543E+02</wgt>
<wgt id='2636'>0.78598E+02</wgt>
<wgt id='2637'>0.78604E+02</wgt>
<wgt id='2638'>0.78600E+02</wgt>
<wgt id='2639'>0.78601E+02</wgt>
<wgt id='2640'>0.78582E+02</wgt>
<wgt id='2641'>0.78599E+02</wgt>
<wgt id='2642'>0.78603E+02</wgt>
<wgt id='2643'>0.78567E+02</wgt>
<wgt id='2644'>0.78589E+02</wgt>
<wgt id='2645'>0.78583E+02</wgt>
<wgt id='2646'>0.78636E+02</wgt>
<wgt id='2647'>0.78581E+02</wgt>
<wgt id='2648'>0.78580E+02</wgt>
<wgt id='2649'>0.78593E+02</wgt>
<wgt id='2650'>0.78597E+02</wgt>
<wgt id='2651'>0.77423E+02</wgt>
<wgt id='2652'>0.79569E+02</wgt>
<wgt id='2700'>0.76370E+02</wgt>
<wgt id='2701'>0.77423E+02</wgt>
<wgt id='2702'>0.78070E+02</wgt>
<wgt id='2703'>0.79045E+02</wgt>
<wgt id='2704'>0.79569E+02</wgt>
<wgt id='2705'>0.80631E+02</wgt>
<wgt id='2800'>0.79825E+02</wgt>
<wgt id='4000'>0.82194E+02</wgt>
<wgt id='4001'>0.82563E+02</wgt>
<wgt id='4002'>0.82227E+02</wgt>
<wgt id='4003'>0.81936E+02</wgt>
<wgt id='4004'>0.82693E+02</wgt>
<wgt id='4005'>0.82256E+02</wgt>
<wgt id='4006'>0.82315E+02</wgt>
<wgt id='4007'>0.82871E+02</wgt>
<wgt id='4008'>0.81577E+02</wgt>
<wgt id='4009'>0.82273E+02</wgt>
<wgt id='4010'>0.81928E+02</wgt>
<wgt id='4011'>0.82636E+02</wgt>
<wgt id='4012'>0.81732E+02</wgt>
<wgt id='4013'>0.82815E+02</wgt>
<wgt id='4014'>0.81746E+02</wgt>
<wgt id='4015'>0.81953E+02</wgt>
<wgt id='4016'>0.83217E+02</wgt>
<wgt id='4017'>0.82192E+02</wgt>
<wgt id='4018'>0.82246E+02</wgt>
<wgt id='4019'>0.82527E+02</wgt>
<wgt id='4020'>0.81822E+02</wgt>
<wgt id='4021'>0.82425E+02</wgt>
<wgt id='4022'>0.81788E+02</wgt>
<wgt id='4023'>0.82640E+02</wgt>
<wgt id='4024'>0.82279E+02</wgt>
<wgt id='4025'>0.82272E+02</wgt>
<wgt id='4026'>0.82136E+02</wgt>
<wgt id='4027'>0.82646E+02</wgt>
<wgt id='4028'>0.81936E+02</wgt>
<wgt id='4029'>0.82556E+02</wgt>
<wgt id='4030'>0.81415E+02</wgt>
<wgt id='4031'>0.81831E+02</wgt>
<wgt id='4032'>0.83607E+02</wgt>
<wgt id='4033'>0.82840E+02</wgt>
<wgt id='4034'>0.81389E+02</wgt>
<wgt id='4035'>0.83430E+02</wgt>
<wgt id='4036'>0.81321E+02</wgt>
<wgt id='4037'>0.84417E+02</wgt>
<wgt id='4038'>0.80597E+02</wgt>
<wgt id='4039'>0.83932E+02</wgt>
<wgt id='4040'>0.80547E+02</wgt>
<wgt id='4041'>0.82379E+02</wgt>
<wgt id='4042'>0.81888E+02</wgt>
<wgt id='4043'>0.81512E+02</wgt>
<wgt id='4044'>0.81824E+02</wgt>
<wgt id='4045'>0.82907E+02</wgt>
<wgt id='4046'>0.81927E+02</wgt>
<wgt id='4047'>0.81910E+02</wgt>
<wgt id='4048'>0.82577E+02</wgt>
<wgt id='4049'>0.82285E+02</wgt>
<wgt id='4050'>0.82200E+02</wgt>
<wgt id='4051'>0.82702E+02</wgt>
<wgt id='4052'>0.81896E+02</wgt>
<wgt id='4053'>0.82448E+02</wgt>
<wgt id='4054'>0.81345E+02</wgt>
<wgt id='4055'>0.82715E+02</wgt>
<wgt id='4056'>0.81751E+02</wgt>
<wgt id='4057'>0.81359E+02</wgt>
<wgt id='4058'>0.82715E+02</wgt>
<wgt id='4100'>0.82437E+02</wgt>
<wgt id='4101'>0.82304E+02</wgt>
<wgt id='4102'>0.82094E+02</wgt>
<wgt id='4103'>0.81995E+02</wgt>
<wgt id='4200'>0.79253E+02</wgt>
<wgt id='4201'>0.79309E+02</wgt>
<wgt id='4202'>0.79522E+02</wgt>
<wgt id='4203'>0.78597E+02</wgt>
<wgt id='4204'>0.79695E+02</wgt>
<wgt id='4205'>0.79142E+02</wgt>
<wgt id='4206'>0.79639E+02</wgt>
<wgt id='4207'>0.79539E+02</wgt>
<wgt id='4208'>0.79168E+02</wgt>
<wgt id='4209'>0.79378E+02</wgt>
<wgt id='4210'>0.79314E+02</wgt>
<wgt id='4211'>0.80143E+02</wgt>
<wgt id='4212'>0.78582E+02</wgt>
<wgt id='4213'>0.79485E+02</wgt>
<wgt id='4214'>0.78906E+02</wgt>
<wgt id='4215'>0.79264E+02</wgt>
<wgt id='4216'>0.79269E+02</wgt>
<wgt id='4217'>0.79016E+02</wgt>
<wgt id='4218'>0.79402E+02</wgt>
<wgt id='4219'>0.78368E+02</wgt>
<wgt id='4220'>0.80176E+02</wgt>
<wgt id='4221'>0.78760E+02</wgt>
<wgt id='4222'>0.80045E+02</wgt>
<wgt id='4223'>0.78958E+02</wgt>
<wgt id='4224'>0.78655E+02</wgt>
<wgt id='4225'>0.78205E+02</wgt>
<wgt id='4226'>0.80563E+02</wgt>
<wgt id='4227'>0.80162E+02</wgt>
<wgt id='4228'>0.78509E+02</wgt>
<wgt id='4229'>0.77880E+02</wgt>
<wgt id='4230'>0.80336E+02</wgt>
<wgt id='4231'>0.79585E+02</wgt>
<wgt id='4232'>0.78710E+02</wgt>
<wgt id='4233'>0.79528E+02</wgt>
<wgt id='4234'>0.78493E+02</wgt>
<wgt id='4235'>0.79932E+02</wgt>
<wgt id='4236'>0.78683E+02</wgt>
<wgt id='4237'>0.79981E+02</wgt>
<wgt id='4238'>0.77965E+02</wgt>
<wgt id='4239'>0.79118E+02</wgt>
<wgt id='4240'>0.78637E+02</wgt>
<wgt id='4241'>0.79245E+02</wgt>
<wgt id='4242'>0.79240E+02</wgt>
<wgt id='4243'>0.79288E+02</wgt>
<wgt id='4244'>0.79610E+02</wgt>
<wgt id='4245'>0.78917E+02</wgt>
<wgt id='4246'>0.79314E+02</wgt>
<wgt id='4247'>0.78809E+02</wgt>
<wgt id='4248'>0.79412E+02</wgt>
<wgt id='4249'>0.80601E+02</wgt>
<wgt id='4250'>0.77751E+02</wgt>
<wgt id='4251'>0.79760E+02</wgt>
<wgt id='4252'>0.78887E+02</wgt>
<wgt id='4253'>0.79453E+02</wgt>
<wgt id='4254'>0.78845E+02</wgt>
<wgt id='4255'>0.80256E+02</wgt>
<wgt id='4256'>0.78746E+02</wgt>
<wgt id='4257'>0.77820E+02</wgt>
<wgt id='4258'>0.79658E+02</wgt>
<wgt id='4300'>0.81385E+02</wgt>
<wgt id='4301'>0.80934E+02</wgt>
<wgt id='5000'>0.81798E+02</wgt>
<wgt id='5001'>0.81844E+02</wgt>
<wgt id='5002'>0.81738E+02</wgt>
<wgt id='5003'>0.81816E+02</wgt>
<wgt id='5004'>0.81781E+02</wgt>
<wgt id='5005'>0.81812E+02</wgt>
<wgt id='5006'>0.81774E+02</wgt>
<wgt id='5007'>0.81871E+02</wgt>
<wgt id='5008'>0.81738E+02</wgt>
<wgt id='5009'>0.81919E+02</wgt>
<wgt id='5010'>0.81672E+02</wgt>
<wgt id='5011'>0.82019E+02</wgt>
<wgt id='5012'>0.81585E+02</wgt>
<wgt id='5013'>0.81962E+02</wgt>
<wgt id='5014'>0.81681E+02</wgt>
<wgt id='5015'>0.81392E+02</wgt>
<wgt id='5016'>0.81392E+02</wgt>
<wgt id='5017'>0.82160E+02</wgt>
<wgt id='5018'>0.81554E+02</wgt>
<wgt id='5019'>0.82041E+02</wgt>
<wgt id='5020'>0.81464E+02</wgt>
<wgt id='5021'>0.81872E+02</wgt>
<wgt id='5022'>0.81683E+02</wgt>
<wgt id='5023'>0.81755E+02</wgt>
<wgt id='5024'>0.81899E+02</wgt>
<wgt id='5025'>0.81629E+02</wgt>
<wgt id='5026'>0.81983E+02</wgt>
<wgt id='5027'>0.81857E+02</wgt>
<wgt id='5028'>0.81639E+02</wgt>
<wgt id='5029'>0.82809E+02</wgt>
<wgt id='5030'>0.81230E+02</wgt>
<wgt id='5031'>0.81228E+02</wgt>
<wgt id='5032'>0.83553E+02</wgt>
<wgt id='5033'>0.81742E+02</wgt>
<wgt id='5034'>0.81857E+02</wgt>
<wgt id='5035'>0.81813E+02</wgt>
<wgt id='5036'>0.81779E+02</wgt>
<wgt id='5037'>0.81549E+02</wgt>
<wgt id='5038'>0.81937E+02</wgt>
<wgt id='5039'>0.81987E+02</wgt>
<wgt id='5040'>0.81324E+02</wgt>
<wgt id='5041'>0.81667E+02</wgt>
<wgt id='5042'>0.81931E+02</wgt>
<wgt id='5043'>0.82009E+02</wgt>
<wgt id='5044'>0.81634E+02</wgt>
<wgt id='5045'>0.81777E+02</wgt>
<wgt id='5046'>0.81989E+02</wgt>
<wgt id='5047'>0.81876E+02</wgt>
<wgt id='5048'>0.81454E+02</wgt>
<wgt id='5049'>0.81738E+02</wgt>
<wgt id='5050'>0.81955E+02</wgt>
<wgt id='5051'>0.81982E+02</wgt>
<wgt id='5052'>0.81675E+02</wgt>
<wgt id='5053'>0.81929E+02</wgt>
<wgt id='5054'>0.81980E+02</wgt>
<wgt id='5055'>0.81816E+02</wgt>
<wgt id='5056'>0.81845E+02</wgt>
<wgt id='5057'>0.81479E+02</wgt>
<wgt id='5058'>0.82022E+02</wgt>
<wgt id='5059'>0.81707E+02</wgt>
<wgt id='5060'>0.81853E+02</wgt>
<wgt id='5061'>0.82110E+02</wgt>
<wgt id='5062'>0.81947E+02</wgt>
<wgt id='5063'>0.82130E+02</wgt>
<wgt id='5064'>0.81794E+02</wgt>
<wgt id='5100'>0.81798E+02</wgt>
<wgt id='5101'>0.81789E+02</wgt>
<wgt id='6000'>0.81331E+02</wgt>
<wgt id='6001'>0.81112E+02</wgt>
<wgt id='6002'>0.80912E+02</wgt>
<wgt id='6003'>0.81130E+02</wgt>
<wgt id='6004'>0.81556E+02</wgt>
<wgt id='6005'>0.80907E+02</wgt>
<wgt id='6006'>0.81441E+02</wgt>
<wgt id='6007'>0.80923E+02</wgt>
<wgt id='6008'>0.81584E+02</wgt>
<wgt id='6009'>0.81328E+02</wgt>
<wgt id='6010'>0.80596E+02</wgt>
<wgt id='6011'>0.81293E+02</wgt>
<wgt id='6012'>0.81564E+02</wgt>
<wgt id='6013'>0.80984E+02</wgt>
<wgt id='6014'>0.81053E+02</wgt>
<wgt id='6015'>0.80569E+02</wgt>
<wgt id='6016'>0.81619E+02</wgt>
<wgt id='6017'>0.81086E+02</wgt>
<wgt id='6018'>0.80877E+02</wgt>
<wgt id='6019'>0.81399E+02</wgt>
<wgt id='6020'>0.81494E+02</wgt>
<wgt id='6021'>0.81267E+02</wgt>
<wgt id='6022'>0.81463E+02</wgt>
<wgt id='6023'>0.81326E+02</wgt>
<wgt id='6024'>0.81430E+02</wgt>
<wgt id='6025'>0.81731E+02</wgt>
<wgt id='6026'>0.81254E+02</wgt>
<wgt id='6027'>0.81342E+02</wgt>
<wgt id='6028'>0.81028E+02</wgt>
<wgt id='6029'>0.81127E+02</wgt>
<wgt id='6030'>0.81163E+02</wgt>
<wgt id='6031'>0.81079E+02</wgt>
<wgt id='6032'>0.81312E+02</wgt>
<wgt id='6033'>0.81213E+02</wgt>
<wgt id='6034'>0.81689E+02</wgt>
<wgt id='6035'>0.81390E+02</wgt>
<wgt id='6036'>0.82002E+02</wgt>
<wgt id='6037'>0.81337E+02</wgt>
<wgt id='6038'>0.81323E+02</wgt>
<wgt id='6039'>0.81576E+02</wgt>
<wgt id='6040'>0.81311E+02</wgt>
<wgt id='6041'>0.79434E+02</wgt>
<wgt id='6042'>0.81261E+02</wgt>
<wgt id='7000'>0.80083E+02</wgt>
<wgt id='7001'>0.78775E+02</wgt>
<wgt id='7002'>0.78947E+02</wgt>
<wgt id='7003'>0.78810E+02</wgt>
<wgt id='7004'>0.78913E+02</wgt>
<wgt id='7005'>0.78914E+02</wgt>
<wgt id='7006'>0.78809E+02</wgt>
<wgt id='7007'>0.79341E+02</wgt>
<wgt id='7008'>0.78396E+02</wgt>
<wgt id='7009'>0.78449E+02</wgt>
<wgt id='7010'>0.79287E+02</wgt>
<wgt id='7011'>0.79120E+02</wgt>
<wgt id='7012'>0.78608E+02</wgt>
<wgt id='7013'>0.78803E+02</wgt>
<wgt id='7014'>0.78912E+02</wgt>
<wgt id='7015'>0.78899E+02</wgt>
<wgt id='7016'>0.78599E+02</wgt>
<wgt id='7017'>0.78836E+02</wgt>
<wgt id='7018'>0.78897E+02</wgt>
<wgt id='7019'>0.78916E+02</wgt>
<wgt id='7020'>0.78822E+02</wgt>
<wgt id='7021'>0.79600E+02</wgt>
<wgt id='7022'>0.78161E+02</wgt>
<wgt id='7023'>0.78155E+02</wgt>
<wgt id='7024'>0.79587E+02</wgt>
<wgt id='7025'>0.77561E+02</wgt>
<wgt id='7026'>0.80148E+02</wgt>
<wgt id='7027'>0.78281E+02</wgt>
<wgt id='7028'>0.79486E+02</wgt>
<wgt id='8000'>0.80468E+02</wgt>
<wgt id='8001'>0.80465E+02</wgt>
<wgt id='8002'>0.80491E+02</wgt>
<wgt id='8003'>0.80468E+02</wgt>
<wgt id='8004'>0.80467E+02</wgt>
<wgt id='8005'>0.80342E+02</wgt>
<wgt id='8006'>0.80588E+02</wgt>
<wgt id='8007'>0.80693E+02</wgt>
<wgt id='8008'>0.80640E+02</wgt>
<wgt id='8009'>0.80785E+02</wgt>
<wgt id='8010'>0.80360E+02</wgt>
<wgt id='8011'>0.80503E+02</wgt>
<wgt id='8012'>0.80139E+02</wgt>
<wgt id='8013'>0.80283E+02</wgt>
<wgt id='8014'>0.80716E+02</wgt>
<wgt id='8015'>0.80426E+02</wgt>
<wgt id='8016'>0.80571E+02</wgt>
<wgt id='8017'>0.80563E+02</wgt>
<wgt id='8018'>0.80745E+02</wgt>
<wgt id='8019'>0.80418E+02</wgt>
<wgt id='8020'>0.80620E+02</wgt>
<wgt id='8021'>0.80348E+02</wgt>
<wgt id='8022'>0.80741E+02</wgt>
<wgt id='8023'>0.80257E+02</wgt>
<wgt id='8024'>0.80002E+02</wgt>
<wgt id='8025'>0.80193E+02</wgt>
<wgt id='8026'>0.80508E+02</wgt>
<wgt id='8027'>0.80608E+02</wgt>
<wgt id='8028'>0.80501E+02</wgt>
<wgt id='8029'>0.81138E+02</wgt>
<wgt id='3000'>0.81104E+02</wgt>
<wgt id='3001'>0.81314E+02</wgt>
<wgt id='3002'>0.80498E+02</wgt>
<wgt id='3003'>0.81914E+02</wgt>
<wgt id='3004'>0.82220E+02</wgt>
<wgt id='3005'>0.81647E+02</wgt>
<wgt id='3006'>0.82393E+02</wgt>
<wgt id='3007'>0.79881E+02</wgt>
<wgt id='3008'>0.79919E+02</wgt>
<wgt id='3009'>0.81038E+02</wgt>
<wgt id='3010'>0.83461E+02</wgt>
<wgt id='3011'>0.81245E+02</wgt>
<wgt id='3012'>0.81591E+02</wgt>
<wgt id='3013'>0.79362E+02</wgt>
<wgt id='3014'>0.81095E+02</wgt>
<wgt id='3015'>0.79704E+02</wgt>
<wgt id='3016'>0.81461E+02</wgt>
<wgt id='3017'>0.82399E+02</wgt>
<wgt id='3018'>0.80759E+02</wgt>
<wgt id='3019'>0.79499E+02</wgt>
<wgt id='3020'>0.79962E+02</wgt>
<wgt id='3021'>0.78949E+02</wgt>
<wgt id='3022'>0.78896E+02</wgt>
<wgt id='3023'>0.79654E+02</wgt>
<wgt id='3024'>0.81005E+02</wgt>
<wgt id='3025'>0.80013E+02</wgt>
<wgt id='3026'>0.79688E+02</wgt>
<wgt id='3027'>0.80689E+02</wgt>
<wgt id='3028'>0.80140E+02</wgt>
<wgt id='3029'>0.81911E+02</wgt>
<wgt id='3030'>0.81736E+02</wgt>
<wgt id='3031'>0.81128E+02</wgt>
<wgt id='3032'>0.80696E+02</wgt>
<wgt id='3033'>0.80532E+02</wgt>
<wgt id='3034'>0.82795E+02</wgt>
<wgt id='3035'>0.79894E+02</wgt>
<wgt id='3036'>0.79766E+02</wgt>
<wgt id='3037'>0.79246E+02</wgt>
<wgt id='3038'>0.81309E+02</wgt>
<wgt id='3039'>0.80169E+02</wgt>
<wgt id='3040'>0.81483E+02</wgt>
<wgt id='3041'>0.81598E+02</wgt>
<wgt id='3042'>0.82466E+02</wgt>
<wgt id='3043'>0.82309E+02</wgt>
<wgt id='3044'>0.82549E+02</wgt>
<wgt id='3045'>0.81602E+02</wgt>
<wgt id='3046'>0.81548E+02</wgt>
<wgt id='3047'>0.81207E+02</wgt>
<wgt id='3048'>0.81479E+02</wgt>
<wgt id='3049'>0.80012E+02</wgt>
<wgt id='3050'>0.80832E+02</wgt>
<wgt id='3051'>0.80860E+02</wgt>
<wgt id='3052'>0.79707E+02</wgt>
<wgt id='3053'>0.81670E+02</wgt>
<wgt id='3054'>0.80387E+02</wgt>
<wgt id='3055'>0.81027E+02</wgt>
<wgt id='3056'>0.81164E+02</wgt>
<wgt id='3057'>0.79800E+02</wgt>
<wgt id='3058'>0.81385E+02</wgt>
<wgt id='3059'>0.80948E+02</wgt>
<wgt id='3060'>0.80413E+02</wgt>
<wgt id='3061'>0.80667E+02</wgt>
<wgt id='3062'>0.81149E+02</wgt>
<wgt id='3063'>0.79997E+02</wgt>
<wgt id='3064'>0.82286E+02</wgt>
<wgt id='3065'>0.79741E+02</wgt>
<wgt id='3066'>0.82666E+02</wgt>
<wgt id='3067'>0.80538E+02</wgt>
<wgt id='3068'>0.80725E+02</wgt>
<wgt id='3069'>0.81136E+02</wgt>
<wgt id='3070'>0.81672E+02</wgt>
<wgt id='3071'>0.81026E+02</wgt>
<wgt id='3072'>0.80014E+02</wgt>
<wgt id='3073'>0.81491E+02</wgt>
<wgt id='3074'>0.80486E+02</wgt>
<wgt id='3075'>0.82010E+02</wgt>
<wgt id='3076'>0.82705E+02</wgt>
<wgt id='3077'>0.81613E+02</wgt>
<wgt id='3078'>0.79855E+02</wgt>
<wgt id='3079'>0.80738E+02</wgt>
<wgt id='3080'>0.83401E+02</wgt>
<wgt id='3081'>0.81578E+02</wgt>
<wgt id='3082'>0.81461E+02</wgt>
<wgt id='3083'>0.81978E+02</wgt>
<wgt id='3084'>0.80590E+02</wgt>
<wgt id='3085'>0.81095E+02</wgt>
<wgt id='3086'>0.82603E+02</wgt>
<wgt id='3087'>0.80777E+02</wgt>
<wgt id='3088'>0.82818E+02</wgt>
<wgt id='3089'>0.83863E+02</wgt>
<wgt id='3090'>0.82450E+02</wgt>
<wgt id='3091'>0.81252E+02</wgt>
<wgt id='3092'>0.81688E+02</wgt>
<wgt id='3093'>0.81288E+02</wgt>
<wgt id='3094'>0.81945E+02</wgt>
<wgt id='3095'>0.80846E+02</wgt>
<wgt id='3096'>0.80577E+02</wgt>
<wgt id='3097'>0.83424E+02</wgt>
<wgt id='3098'>0.81842E+02</wgt>
<wgt id='3099'>0.79809E+02</wgt>
<wgt id='3100'>0.80250E+02</wgt>
<wgt id='3200'>0.78666E+02</wgt>
<wgt id='3201'>0.79079E+02</wgt>
<wgt id='3202'>0.77057E+02</wgt>
<wgt id='3203'>0.79130E+02</wgt>
<wgt id='3204'>0.78020E+02</wgt>
<wgt id='3205'>0.79303E+02</wgt>
<wgt id='3206'>0.79606E+02</wgt>
<wgt id='3207'>0.79587E+02</wgt>
<wgt id='3208'>0.78947E+02</wgt>
<wgt id='3209'>0.78558E+02</wgt>
<wgt id='3210'>0.78729E+02</wgt>
<wgt id='3211'>0.78866E+02</wgt>
<wgt id='3212'>0.78242E+02</wgt>
<wgt id='3213'>0.79067E+02</wgt>
<wgt id='3214'>0.78729E+02</wgt>
<wgt id='3215'>0.78753E+02</wgt>
<wgt id='3216'>0.79677E+02</wgt>
<wgt id='3217'>0.78832E+02</wgt>
<wgt id='3218'>0.79178E+02</wgt>
<wgt id='3219'>0.78216E+02</wgt>
<wgt id='3220'>0.78254E+02</wgt>
<wgt id='3221'>0.78891E+02</wgt>
<wgt id='3222'>0.80009E+02</wgt>
<wgt id='3223'>0.78983E+02</wgt>
<wgt id='3224'>0.78582E+02</wgt>
<wgt id='3225'>0.79450E+02</wgt>
<wgt id='3226'>0.78559E+02</wgt>
<wgt id='3227'>0.78137E+02</wgt>
<wgt id='3228'>0.77942E+02</wgt>
<wgt id='3229'>0.79284E+02</wgt>
<wgt id='3230'>0.79062E+02</wgt>
<wgt id='3231'>0.78889E+02</wgt>
<wgt id='3232'>0.79000E+02</wgt>
<wgt id='3233'>0.79514E+02</wgt>
<wgt id='3234'>0.77843E+02</wgt>
<wgt id='3235'>0.78446E+02</wgt>
<wgt id='3236'>0.78303E+02</wgt>
<wgt id='3237'>0.78601E+02</wgt>
<wgt id='3238'>0.78047E+02</wgt>
<wgt id='3239'>0.78019E+02</wgt>
<wgt id='3240'>0.77617E+02</wgt>
<wgt id='3241'>0.79511E+02</wgt>
<wgt id='3242'>0.78658E+02</wgt>
<wgt id='3243'>0.78166E+02</wgt>
<wgt id='3244'>0.78628E+02</wgt>
<wgt id='3245'>0.78965E+02</wgt>
<wgt id='3246'>0.77418E+02</wgt>
<wgt id='3247'>0.78651E+02</wgt>
<wgt id='3248'>0.78508E+02</wgt>
<wgt id='3249'>0.77596E+02</wgt>
<wgt id='3250'>0.78559E+02</wgt>
<wgt id='3251'>0.78419E+02</wgt>
<wgt id='3252'>0.79367E+02</wgt>
<wgt id='3253'>0.78366E+02</wgt>
<wgt id='3254'>0.78080E+02</wgt>
<wgt id='3255'>0.78166E+02</wgt>
<wgt id='3256'>0.78891E+02</wgt>
<wgt id='3257'>0.78408E+02</wgt>
<wgt id='3258'>0.78442E+02</wgt>
<wgt id='3259'>0.78494E+02</wgt>
<wgt id='3260'>0.78983E+02</wgt>
<wgt id='3261'>0.79004E+02</wgt>
<wgt id='3262'>0.79098E+02</wgt>
<wgt id='3263'>0.79737E+02</wgt>
<wgt id='3264'>0.78543E+02</wgt>
<wgt id='3265'>0.78569E+02</wgt>
<wgt id='3266'>0.78601E+02</wgt>
<wgt id='3267'>0.78446E+02</wgt>
<wgt id='3268'>0.78356E+02</wgt>
<wgt id='3269'>0.78694E+02</wgt>
<wgt id='3270'>0.79177E+02</wgt>
<wgt id='3271'>0.78764E+02</wgt>
<wgt id='3272'>0.78989E+02</wgt>
<wgt id='3273'>0.78552E+02</wgt>
<wgt id='3274'>0.78335E+02</wgt>
<wgt id='3275'>0.79249E+02</wgt>
<wgt id='3276'>0.77774E+02</wgt>
<wgt id='3277'>0.77970E+02</wgt>
<wgt id='3278'>0.79038E+02</wgt>
<wgt id='3279'>0.79257E+02</wgt>
<wgt id='3280'>0.78624E+02</wgt>
<wgt id='3281'>0.79319E+02</wgt>
<wgt id='3282'>0.78974E+02</wgt>
<wgt id='3283'>0.78993E+02</wgt>
<wgt id='3284'>0.78705E+02</wgt>
<wgt id='3285'>0.78362E+02</wgt>
<wgt id='3286'>0.77738E+02</wgt>
<wgt id='3287'>0.79296E+02</wgt>
<wgt id='3288'>0.78296E+02</wgt>
<wgt id='3289'>0.79378E+02</wgt>
<wgt id='3290'>0.78833E+02</wgt>
<wgt id='3291'>0.77317E+02</wgt>
<wgt id='3292'>0.77912E+02</wgt>
<wgt id='3293'>0.78768E+02</wgt>
<wgt id='3294'>0.77851E+02</wgt>
<wgt id='3295'>0.78200E+02</wgt>
<wgt id='3296'>0.79797E+02</wgt>
<wgt id='3297'>0.78302E+02</wgt>
<wgt id='3298'>0.78062E+02</wgt>
<wgt id='3299'>0.78740E+02</wgt>
<wgt id='3300'>0.79662E+02</wgt>
<wgt id='3301'>0.77423E+02</wgt>
<wgt id='3302'>0.79569E+02</wgt>
<wgt id='3400'>0.78803E+02</wgt>
<wgt id='3401'>0.79112E+02</wgt>
<wgt id='3402'>0.77786E+02</wgt>
<wgt id='3403'>0.79265E+02</wgt>
<wgt id='3404'>0.79720E+02</wgt>
<wgt id='3405'>0.79534E+02</wgt>
<wgt id='3406'>0.79276E+02</wgt>
<wgt id='3407'>0.78377E+02</wgt>
<wgt id='3408'>0.79653E+02</wgt>
<wgt id='3409'>0.79781E+02</wgt>
<wgt id='3410'>0.79738E+02</wgt>
<wgt id='3411'>0.79477E+02</wgt>
<wgt id='3412'>0.79305E+02</wgt>
<wgt id='3413'>0.78592E+02</wgt>
<wgt id='3414'>0.78521E+02</wgt>
<wgt id='3415'>0.78822E+02</wgt>
<wgt id='3416'>0.78643E+02</wgt>
<wgt id='3417'>0.78532E+02</wgt>
<wgt id='3418'>0.78285E+02</wgt>
<wgt id='3419'>0.78103E+02</wgt>
<wgt id='3420'>0.78741E+02</wgt>
<wgt id='3421'>0.78942E+02</wgt>
<wgt id='3422'>0.78379E+02</wgt>
<wgt id='3423'>0.79765E+02</wgt>
<wgt id='3424'>0.79232E+02</wgt>
<wgt id='3425'>0.78842E+02</wgt>
<wgt id='3426'>0.78421E+02</wgt>
<wgt id='3427'>0.78473E+02</wgt>
<wgt id='3428'>0.78826E+02</wgt>
<wgt id='3429'>0.78184E+02</wgt>
<wgt id='3430'>0.78523E+02</wgt>
<wgt id='3431'>0.78677E+02</wgt>
<wgt id='3432'>0.78894E+02</wgt>
<wgt id='3433'>0.78224E+02</wgt>
<wgt id='3434'>0.79620E+02</wgt>
<wgt id='3435'>0.79811E+02</wgt>
<wgt id='3436'>0.78643E+02</wgt>
<wgt id='3437'>0.78867E+02</wgt>
<wgt id='3438'>0.78138E+02</wgt>
<wgt id='3439'>0.78170E+02</wgt>
<wgt id='3440'>0.79208E+02</wgt>
<wgt id='3441'>0.79057E+02</wgt>
<wgt id='3442'>0.78127E+02</wgt>
<wgt id='3443'>0.79003E+02</wgt>
<wgt id='3444'>0.78479E+02</wgt>
<wgt id='3445'>0.78272E+02</wgt>
<wgt id='3446'>0.79500E+02</wgt>
<wgt id='3447'>0.79153E+02</wgt>
<wgt id='3448'>0.79599E+02</wgt>
<wgt id='3449'>0.79647E+02</wgt>
<wgt id='3450'>0.78804E+02</wgt>
<wgt id='3451'>0.79137E+02</wgt>
<wgt id='3452'>0.78613E+02</wgt>
<wgt id='3453'>0.77526E+02</wgt>
<wgt id='3454'>0.78568E+02</wgt>
<wgt id='3455'>0.79652E+02</wgt>
<wgt id='3456'>0.78774E+02</wgt>
<wgt id='3457'>0.79874E+02</wgt>
<wgt id='3458'>0.78803E+02</wgt>
<wgt id='3459'>0.78886E+02</wgt>
<wgt id='3460'>0.78733E+02</wgt>
<wgt id='3461'>0.78123E+02</wgt>
<wgt id='3462'>0.79150E+02</wgt>
<wgt id='3463'>0.78076E+02</wgt>
<wgt id='3464'>0.78841E+02</wgt>
<wgt id='3465'>0.79435E+02</wgt>
<wgt id='3466'>0.79394E+02</wgt>
<wgt id='3467'>0.78260E+02</wgt>
<wgt id='3468'>0.78874E+02</wgt>
<wgt id='3469'>0.78399E+02</wgt>
<wgt id='3470'>0.78205E+02</wgt>
<wgt id='3471'>0.78419E+02</wgt>
<wgt id='3472'>0.77691E+02</wgt>
<wgt id='3473'>0.79856E+02</wgt>
<wgt id='3474'>0.78542E+02</wgt>
<wgt id='3475'>0.79185E+02</wgt>
<wgt id='3476'>0.78448E+02</wgt>
<wgt id='3477'>0.78188E+02</wgt>
<wgt id='3478'>0.80035E+02</wgt>
<wgt id='3479'>0.78491E+02</wgt>
<wgt id='3480'>0.78556E+02</wgt>
<wgt id='3481'>0.78940E+02</wgt>
<wgt id='3482'>0.79240E+02</wgt>
<wgt id='3483'>0.78419E+02</wgt>
<wgt id='3484'>0.78683E+02</wgt>
<wgt id='3485'>0.78227E+02</wgt>
<wgt id='3486'>0.77398E+02</wgt>
<wgt id='3487'>0.78878E+02</wgt>
<wgt id='3488'>0.78550E+02</wgt>
<wgt id='3489'>0.77983E+02</wgt>
<wgt id='3490'>0.80033E+02</wgt>
<wgt id='3491'>0.79005E+02</wgt>
<wgt id='3492'>0.78772E+02</wgt>
<wgt id='3493'>0.78975E+02</wgt>
<wgt id='3494'>0.76777E+02</wgt>
<wgt id='3495'>0.79309E+02</wgt>
<wgt id='3496'>0.78001E+02</wgt>
<wgt id='3497'>0.78640E+02</wgt>
<wgt id='3498'>0.79060E+02</wgt>
<wgt id='3499'>0.78561E+02</wgt>
<wgt id='3500'>0.79367E+02</wgt>
</rwgt>
</event>
<event>
     13 322200  8.11039E+01  1.86016E+01 -1.00000E+00  1.66019E-01
      21    -1     0     0   503   504  0.000000000E+00  0.000000000E+00  5.540826785E+01  5.540826785E+01  0.000000000E+00  0.00000E+00  9.000E+00
      21    -1     0     0   502   503  0.000000000E+00  0.000000000E+00 -1.209128335E+03  1.209128335E+03  0.000000000E+00  0.00000E+00  9.000E+00
       6     2     1     2   502     0 -5.176594078E+01 -1.418475501E+02 -4.288583462E+02  4.861486621E+02  1.721063638E+02  0.00000E+00  9.000E+00
      -6     2     1     2     0   505  7.024572636E+01  1.439727198E+02 -7.222353378E+02  7.596018636E+02  1.723615441E+02  0.00000E+00  9.000E+00
      21     1     1     2   505   504 -1.847978558E+01 -2.125169774E+00 -2.626383598E+00  1.878607762E+01  6.743495762E-07  0.00000E+00  9.000E+00
      24     2     3     3     0     0  7.534412927E+00 -3.486102894E+01 -9.224020372E+01  1.279587333E+02  8.119805124E+01  0.00000E+00  9.000E+00
       5     1     3     3   502     0 -5.930035371E+01 -1.069865211E+02 -3.366181424E+02  3.581899288E+02  5.060000000E+00  0.00000E+00 -1.000E+00
     -24     2     4     4     0     0 -2.314855055E+01  3.788461382E+01 -3.577868532E+02  3.686728691E+02  7.705292170E+01  0.00000E+00  9.000E+00
      -5     1     4     4     0   505  9.339427690E+01  1.060881060E+02 -3.644484846E+02  3.909289945E+02  5.060000000E+00  0.00000E+00  1.000E+00
     -11     1     6     6     0     0 -1.769853562E+01  1.136268412E+01 -6.570444970E+01  6.898857488E+01  5.100000000E-04  0.00000E+00  1.000E+00
      12     1     6     6     0     0  2.523294855E+01 -4.622371305E+01 -2.653575402E+01  5.897015841E+01  0.000000000E+00  0.00000E+00 -1.000E+00
      15     1     8     8     0     0 -1.893087520E+00  1.946491553E+01 -3.245026763E+02  3.250963109E+02  1.777000000E+00  0.00000E+00 -1.000E+00
     -16     1     8     8     0     0 -2.125546303E+01  1.841969829E+01 -3.328417696E+01  4.357655825E+01  0.000000000E+00  0.00000E+00  1.000E+00
#rwgt            1           1   608.73673308565776               10       25788           0
<rwgt>
<wgt id='1001'>0.81104E+02</wgt>
<wgt id='1002'>0.92422E+02</wgt>
<wgt id='1003'>0.68136E+02</wgt>
<wgt id='1004'>0.70024E+02</wgt>
<wgt id='1005'>0.78295E+02</wgt>
<wgt id='1006'>0.60502E+02</wgt>
<wgt id='1007'>0.95015E+02</wgt>
<wgt id='1008'>0.11086E+03</wgt>
<wgt id='1009'>0.76938E+02</wgt>
<wgt id='2000'>0.81104E+02</wgt>
<wgt id='2001'>0.81007E+02</wgt>
<wgt id='2002'>0.81072E+02</wgt>
<wgt id='2003'>0.81016E+02</wgt>
<wgt id='2004'>0.81521E+02</wgt>
<wgt id='2005'>0.80781E+02</wgt>
<wgt id='2006'>0.81271E+02</wgt>
<wgt id='2007'>0.81242E+02</wgt>
<wgt id='2008'>0.81139E+02</wgt>
<wgt id='2009'>0.81366E+02</wgt>
<wgt id='2010'>0.81054E+02</wgt>
<wgt id='2011'>0.81131E+02</wgt>
<wgt id='2012'>0.81448E+02</wgt>
<wgt id='2013'>0.81022E+02</wgt>
<wgt id='2014'>0.81144E+02</wgt>
<wgt id='2015'>0.81252E+02</wgt>
<wgt id='2016'>0.80954E+02</wgt>
<wgt id='2017'>0.81006E+02</wgt>
<wgt id='2018'>0.80701E+02</wgt>
<wgt id='2019'>0.80816E+02</wgt>
<wgt id='2020'>0.80719E+02</wgt>
<wgt id='2021'>0.81204E+02</wgt>
<wgt id='2022'>0.81004E+02</wgt>
<wgt id='2023'>0.80969E+02</wgt>
<wgt id='2024'>0.80512E+02</wgt>
<wgt id='2025'>0.81425E+02</wgt>
<wgt id='2026'>0.81270E+02</wgt>
<wgt id='2027'>0.81677E+02</wgt>
<wgt id='2028'>0.80451E+02</wgt>
<wgt id='2029'>0.80792E+02</wgt>
<wgt id='2030'>0.81247E+02</wgt>
<wgt id='2031'>0.80750E+02</wgt>
<wgt id='2032'>0.81041E+02</wgt>
<wgt id='2033'>0.80890E+02</wgt>
<wgt id='2034'>0.80731E+02</wgt>
<wgt id='2035'>0.81122E+02</wgt>
<wgt id='2036'>0.81196E+02</wgt>
<wgt id='2037'>0.80917E+02</wgt>
<wgt id='2038'>0.81002E+02</wgt>
<wgt id='2039'>0.80959E+02</wgt>
<wgt id='2040'>0.80956E+02</wgt>
<wgt id='2041'>0.80943E+02</wgt>
<wgt id='2042'>0.81267E+02</wgt>
<wgt id='2043'>0.81109E+02</wgt>
<wgt id='2044'>0.81216E+02</wgt>
<wgt id='2045'>0.81122E+02</wgt>
<wgt id='2046'>0.81009E+02</wgt>
<wgt id='2047'>0.81152E+02</wgt>
<wgt id='2048'>0.81099E+02</wgt>
<wgt id='2049'>0.81020E+02</wgt>
<wgt id='2050'>0.80991E+02</wgt>
<wgt id='2051'>0.80998E+02</wgt>
<wgt id='2052'>0.81287E+02</wgt>
<wgt id='2053'>0.81118E+02</wgt>
<wgt id='2054'>0.81086E+02</wgt>
<wgt id='2055'>0.81026E+02</wgt>
<wgt id='2056'>0.81036E+02</wgt>
<wgt id='2057'>0.81146E+02</wgt>
<wgt id='2058'>0.81173E+02</wgt>
<wgt id='2059'>0.81114E+02</wgt>
<wgt id='2060'>0.81062E+02</wgt>
<wgt id='2061'>0.81034E+02</wgt>
<wgt id='2062'>0.81211E+02</wgt>
<wgt id='2063'>0.81104E+02</wgt>
<wgt id='2064'>0.81114E+02</wgt>
<wgt id='2065'>0.81193E+02</wgt>
<wgt id='2066'>0.81056E+02</wgt>
<wgt id='2067'>0.81051E+02</wgt>
<wgt id='2068'>0.81194E+02</wgt>
<wgt id='2069'>0.81095E+02</wgt>
<wgt id='2070'>0.81132E+02</wgt>
<wgt id='2071'>0.81058E+02</wgt>
<wgt id='2072'>0.81072E+02</wgt>
<wgt id='2073'>0.81137E+02</wgt>
<wgt id='2074'>0.81075E+02</wgt>
<wgt id='2075'>0.81092E+02</wgt>
<wgt id='2076'>0.81094E+02</wgt>
<wgt id='2077'>0.81166E+02</wgt>
<wgt id='2078'>0.81119E+02</wgt>
<wgt id='2079'>0.81071E+02</wgt>
<wgt id='2080'>0.81116E+02</wgt>
<wgt id='2081'>0.81084E+02</wgt>
<wgt id='2082'>0.81116E+02</wgt>
<wgt id='2083'>0.81183E+02</wgt>
<wgt id='2084'>0.81099E+02</wgt>
<wgt id='2085'>0.81127E+02</wgt>
<wgt id='2086'>0.81088E+02</wgt>
<wgt id='2087'>0.81118E+02</wgt>
<wgt id='2088'>0.81094E+02</wgt>
<wgt id='2089'>0.81078E+02</wgt>
<wgt id='2090'>0.81131E+02</wgt>
<wgt id='2091'>0.81117E+02</wgt>
<wgt id='2092'>0.81154E+02</wgt>
<wgt id='2093'>0.81066E+02</wgt>
<wgt id='2094'>0.81101E+02</wgt>
<wgt id='2095'>0.81140E+02</wgt>
<wgt id='2096'>0.81079E+02</wgt>
<wgt id='2097'>0.81129E+02</wgt>
<wgt id='2098'>0.81111E+02</wgt>
<wgt id='2099'>0.81124E+02</wgt>
<wgt id='2100'>0.81104E+02</wgt>
<wgt id='2101'>0.78998E+02</wgt>
<wgt id='2102'>0.82886E+02</wgt>
<wgt id='2200'>0.80752E+02</wgt>
<wgt id='2201'>0.70477E+02</wgt>
<wgt id='2202'>0.72524E+02</wgt>
<wgt id='2203'>0.74916E+02</wgt>
<wgt id='2204'>0.76399E+02</wgt>
<wgt id='2205'>0.79588E+02</wgt>
<wgt id='2206'>0.82157E+02</wgt>
<wgt id='2207'>0.85036E+02</wgt>
<wgt id='2208'>0.87856E+02</wgt>
<wgt id='2300'>0.86853E+02</wgt>
<wgt id='2301'>0.86932E+02</wgt>
<wgt id='2302'>0.86829E+02</wgt>
<wgt id='2303'>0.86809E+02</wgt>
<wgt id='2304'>0.87154E+02</wgt>
<wgt id='2305'>0.86880E+02</wgt>
<wgt id='2306'>0.86823E+02</wgt>
<wgt id='2307'>0.86826E+02</wgt>
<wgt id='2308'>0.86693E+02</wgt>
<wgt id='2309'>0.86698E+02</wgt>
<wgt id='2310'>0.86550E+02</wgt>
<wgt id='2311'>0.86910E+02</wgt>
<wgt id='2312'>0.87061E+02</wgt>
<wgt id='2313'>0.86861E+02</wgt>
<wgt id='2314'>0.86821E+02</wgt>
<wgt id='2315'>0.86836E+02</wgt>
<wgt id='2316'>0.86967E+02</wgt>
<wgt id='2317'>0.86848E+02</wgt>
<wgt id='2318'>0.86971E+02</wgt>
<wgt id='2319'>0.86814E+02</wgt>
<wgt id='2320'>0.86909E+02</wgt>
<wgt id='2321'>0.86915E+02</wgt>
<wgt id='2322'>0.86744E+02</wgt>
<wgt id='2323'>0.86680E+02</wgt>
<wgt id='2324'>0.86774E+02</wgt>
<wgt id='2325'>0.86896E+02</wgt>
<wgt id='2326'>0.86810E+02</wgt>
<wgt id='2327'>0.86920E+02</wgt>
<wgt id='2328'>0.86694E+02</wgt>
<wgt id='2329'>0.86879E+02</wgt>
<wgt id='2330'>0.87227E+02</wgt>
<wgt id='2331'>0.86948E+02</wgt>
<wgt id='2332'>0.86675E+02</wgt>
<wgt id='2333'>0.86669E+02</wgt>
<wgt id='2334'>0.86889E+02</wgt>
<wgt id='2335'>0.86058E+02</wgt>
<wgt id='2336'>0.86830E+02</wgt>
<wgt id='2337'>0.87296E+02</wgt>
<wgt id='2338'>0.86836E+02</wgt>
<wgt id='2339'>0.86644E+02</wgt>
<wgt id='2340'>0.87361E+02</wgt>
<wgt id='2341'>0.87181E+02</wgt>
<wgt id='2342'>0.86677E+02</wgt>
<wgt id='2343'>0.86652E+02</wgt>
<wgt id='2344'>0.86805E+02</wgt>
<wgt id='2345'>0.86759E+02</wgt>
<wgt id='2346'>0.87394E+02</wgt>
<wgt id='2347'>0.86902E+02</wgt>
<wgt id='2348'>0.86873E+02</wgt>
<wgt id='2349'>0.86891E+02</wgt>
<wgt id='2350'>0.86447E+02</wgt>
<wgt id='2351'>0.86988E+02</wgt>
<wgt id='2352'>0.86597E+02</wgt>
<wgt id='2353'>0.86942E+02</wgt>
<wgt id='2354'>0.87001E+02</wgt>
<wgt id='2355'>0.86507E+02</wgt>
<wgt id='2356'>0.86775E+02</wgt>
<wgt id='2357'>0.86949E+02</wgt>
<wgt id='2358'>0.86662E+02</wgt>
<wgt id='2359'>0.86812E+02</wgt>
<wgt id='2360'>0.87051E+02</wgt>
<wgt id='2361'>0.86926E+02</wgt>
<wgt id='2362'>0.86978E+02</wgt>
<wgt id='2363'>0.86724E+02</wgt>
<wgt id='2364'>0.86878E+02</wgt>
<wgt id='2365'>0.86711E+02</wgt>
<wgt id='2366'>0.86883E+02</wgt>
<wgt id='2367'>0.86621E+02</wgt>
<wgt id='2368'>0.86888E+02</wgt>
<wgt id='2369'>0.86772E+02</wgt>
<wgt id='2370'>0.86792E+02</wgt>
<wgt id='2371'>0.86774E+02</wgt>
<wgt id='2372'>0.86944E+02</wgt>
<wgt id='2373'>0.86853E+02</wgt>
<wgt id='2374'>0.86975E+02</wgt>
<wgt id='2375'>0.86938E+02</wgt>
<wgt id='2376'>0.86902E+02</wgt>
<wgt id='2377'>0.86842E+02</wgt>
<wgt id='2378'>0.86924E+02</wgt>
<wgt id='2379'>0.86759E+02</wgt>
<wgt id='2380'>0.86789E+02</wgt>
<wgt id='2381'>0.86823E+02</wgt>
<wgt id='2382'>0.86786E+02</wgt>
<wgt id='2383'>0.86849E+02</wgt>
<wgt id='2384'>0.86827E+02</wgt>
<wgt id='2385'>0.86871E+02</wgt>
<wgt id='2386'>0.86879E+02</wgt>
<wgt id='2387'>0.86781E+02</wgt>
<wgt id='2388'>0.86792E+02</wgt>
<wgt id='2389'>0.86833E+02</wgt>
<wgt id='2390'>0.86803E+02</wgt>
<wgt id='2391'>0.86783E+02</wgt>
<wgt id='2392'>0.86867E+02</wgt>
<wgt id='2393'>0.86885E+02</wgt>
<wgt id='2394'>0.86855E+02</wgt>
<wgt id='2395'>0.86880E+02</wgt>
<wgt id='2396'>0.86826E+02</wgt>
<wgt id='2397'>0.86831E+02</wgt>
<wgt id='2398'>0.86862E+02</wgt>
<wgt id='2399'>0.86886E+02</wgt>
<wgt id='2400'>0.86876E+02</wgt>
<wgt id='2401'>0.84933E+02</wgt>
<wgt id='2402'>0.89305E+02</wgt>
<wgt id='2500'>0.82959E+02</wgt>
<wgt id='2501'>0.87811E+02</wgt>
<wgt id='2600'>0.79076E+02</wgt>
<wgt id='2601'>0.78774E+02</wgt>
<wgt id='2602'>0.79209E+02</wgt>
<wgt id='2603'>0.79069E+02</wgt>
<wgt id='2604'>0.79176E+02</wgt>
<wgt id='2605'>0.78980E+02</wgt>
<wgt id='2606'>0.79172E+02</wgt>
<wgt id='2607'>0.79165E+02</wgt>
<wgt id='2608'>0.79229E+02</wgt>
<wgt id='2609'>0.79000E+02</wgt>
<wgt id='2610'>0.79014E+02</wgt>
<wgt id='2611'>0.79068E+02</wgt>
<wgt id='2612'>0.79047E+02</wgt>
<wgt id='2613'>0.79110E+02</wgt>
<wgt id='2614'>0.78983E+02</wgt>
<wgt id='2615'>0.78931E+02</wgt>
<wgt id='2616'>0.79161E+02</wgt>
<wgt id='2617'>0.78882E+02</wgt>
<wgt id='2618'>0.79175E+02</wgt>
<wgt id='2619'>0.79160E+02</wgt>
<wgt id='2620'>0.78843E+02</wgt>
<wgt id='2621'>0.79227E+02</wgt>
<wgt id='2622'>0.79396E+02</wgt>
<wgt id='2623'>0.79028E+02</wgt>
<wgt id='2624'>0.78994E+02</wgt>
<wgt id='2625'>0.79281E+02</wgt>
<wgt id='2626'>0.79169E+02</wgt>
<wgt id='2627'>0.79232E+02</wgt>
<wgt id='2628'>0.78996E+02</wgt>
<wgt id='2629'>0.79216E+02</wgt>
<wgt id='2630'>0.79369E+02</wgt>
<wgt id='2631'>0.79007E+02</wgt>
<wgt id='2632'>0.78799E+02</wgt>
<wgt id='2633'>0.78997E+02</wgt>
<wgt id='2634'>0.78958E+02</wgt>
<wgt id='2635'>0.78848E+02</wgt>
<wgt id='2636'>0.79163E+02</wgt>
<wgt id='2637'>0.79037E+02</wgt>
<wgt id='2638'>0.78971E+02</wgt>
<wgt id='2639'>0.79091E+02</wgt>
<wgt id='2640'>0.79066E+02</wgt>
<wgt id='2641'>0.78957E+02</wgt>
<wgt id='2642'>0.79062E+02</wgt>
<wgt id='2643'>0.78990E+02</wgt>
<wgt id='2644'>0.79069E+02</wgt>
<wgt id='2645'>0.79019E+02</wgt>
<wgt id='2646'>0.79046E+02</wgt>
<wgt id='2647'>0.79065E+02</wgt>
<wgt id='2648'>0.79080E+02</wgt>
<wgt id='2649'>0.79105E+02</wgt>
<wgt id='2650'>0.79105E+02</wgt>
<wgt id='2651'>0.77661E+02</wgt>
<wgt id='2652'>0.80082E+02</wgt>
<wgt id='2700'>0.76469E+02</wgt>
<wgt id='2701'>0.77661E+02</wgt>
<wgt id='2702'>0.78405E+02</wgt>
<wgt id='2703'>0.79741E+02</wgt>
<wgt id='2704'>0.80082E+02</wgt>
<wgt id='2705'>0.81634E+02</wgt>
<wgt id='2800'>0.81385E+02</wgt>
<wgt id='4000'>0.83922E+02</wgt>
<wgt id='4001'>0.84112E+02</wgt>
<wgt id='4002'>0.83930E+02</wgt>
<wgt id='4003'>0.82795E+02</wgt>
<wgt id='4004'>0.85327E+02</wgt>
<wgt id='4005'>0.84472E+02</wgt>
<wgt id='4006'>0.83630E+02</wgt>
<wgt id='4007'>0.84154E+02</wgt>
<wgt id='4008'>0.83764E+02</wgt>
<wgt id='4009'>0.83162E+02</wgt>
<wgt id='4010'>0.84178E+02</wgt>
<wgt id='4011'>0.84624E+02</wgt>
<wgt id='4012'>0.83045E+02</wgt>
<wgt id='4013'>0.83972E+02</wgt>
<wgt id='4014'>0.84032E+02</wgt>
<wgt id='4015'>0.84533E+02</wgt>
<wgt id='4016'>0.84811E+02</wgt>
<wgt id='4017'>0.84049E+02</wgt>
<wgt id='4018'>0.83808E+02</wgt>
<wgt id='4019'>0.83646E+02</wgt>
<wgt id='4020'>0.84495E+02</wgt>
<wgt id='4021'>0.84247E+02</wgt>
<wgt id='4022'>0.83358E+02</wgt>
<wgt id='4023'>0.84436E+02</wgt>
<wgt id='4024'>0.84369E+02</wgt>
<wgt id='4025'>0.83728E+02</wgt>
<wgt id='4026'>0.84575E+02</wgt>
<wgt id='4027'>0.85004E+02</wgt>
<wgt id='4028'>0.83017E+02</wgt>
<wgt id='4029'>0.85429E+02</wgt>
<wgt id='4030'>0.82863E+02</wgt>
<wgt id='4031'>0.83946E+02</wgt>
<wgt id='4032'>0.85649E+02</wgt>
<wgt id='4033'>0.84818E+02</wgt>
<wgt id='4034'>0.83262E+02</wgt>
<wgt id='4035'>0.84001E+02</wgt>
<wgt id='4036'>0.83862E+02</wgt>
<wgt id='4037'>0.87061E+02</wgt>
<wgt id='4038'>0.81529E+02</wgt>
<wgt id='4039'>0.85711E+02</wgt>
<wgt id='4040'>0.82363E+02</wgt>
<wgt id='4041'>0.84568E+02</wgt>
<wgt id='4042'>0.83256E+02</wgt>
<wgt id='4043'>0.84027E+02</wgt>
<wgt id='4044'>0.83056E+02</wgt>
<wgt id='4045'>0.83635E+02</wgt>
<wgt id='4046'>0.84098E+02</wgt>
<wgt id='4047'>0.84648E+02</wgt>
<wgt id='4048'>0.84035E+02</wgt>
<wgt id='4049'>0.83998E+02</wgt>
<wgt id='4050'>0.83960E+02</wgt>
<wgt id='4051'>0.83762E+02</wgt>
<wgt id='4052'>0.84359E+02</wgt>
<wgt id='4053'>0.83628E+02</wgt>
<wgt id='4054'>0.83605E+02</wgt>
<wgt id='4055'>0.84388E+02</wgt>
<wgt id='4056'>0.83419E+02</wgt>
<wgt id='4057'>0.83258E+02</wgt>
<wgt id='4058'>0.84377E+02</wgt>
<wgt id='4100'>0.84313E+02</wgt>
<wgt id='4101'>0.84064E+02</wgt>
<wgt id='4102'>0.83864E+02</wgt>
<wgt id='4103'>0.83861E+02</wgt>
<wgt id='4200'>0.82325E+02</wgt>
<wgt id='4201'>0.82205E+02</wgt>
<wgt id='4202'>0.82584E+02</wgt>
<wgt id='4203'>0.82050E+02</wgt>
<wgt id='4204'>0.82382E+02</wgt>
<wgt id='4205'>0.82321E+02</wgt>
<wgt id='4206'>0.82513E+02</wgt>
<wgt id='4207'>0.83112E+02</wgt>
<wgt id='4208'>0.81843E+02</wgt>
<wgt id='4209'>0.81888E+02</wgt>
<wgt id='4210'>0.82622E+02</wgt>
<wgt id='4211'>0.82695E+02</wgt>
<wgt id='4212'>0.82042E+02</wgt>
<wgt id='4213'>0.82399E+02</wgt>
<wgt id='4214'>0.82191E+02</wgt>
<wgt id='4215'>0.82322E+02</wgt>
<wgt id='4216'>0.82644E+02</wgt>
<wgt id='4217'>0.82449E+02</wgt>
<wgt id='4218'>0.82169E+02</wgt>
<wgt id='4219'>0.82335E+02</wgt>
<wgt id='4220'>0.82391E+02</wgt>
<wgt id='4221'>0.82125E+02</wgt>
<wgt id='4222'>0.82878E+02</wgt>
<wgt id='4223'>0.80939E+02</wgt>
<wgt id='4224'>0.82393E+02</wgt>
<wgt id='4225'>0.81727E+02</wgt>
<wgt id='4226'>0.83362E+02</wgt>
<wgt id='4227'>0.83023E+02</wgt>
<wgt id='4228'>0.81734E+02</wgt>
<wgt id='4229'>0.80851E+02</wgt>
<wgt id='4230'>0.83620E+02</wgt>
<wgt id='4231'>0.82759E+02</wgt>
<wgt id='4232'>0.81618E+02</wgt>
<wgt id='4233'>0.82480E+02</wgt>
<wgt id='4234'>0.81533E+02</wgt>
<wgt id='4235'>0.83395E+02</wgt>
<wgt id='4236'>0.81217E+02</wgt>
<wgt id='4237'>0.84018E+02</wgt>
<wgt id='4238'>0.79955E+02</wgt>
<wgt id='4239'>0.81828E+02</wgt>
<wgt id='4240'>0.82683E+02</wgt>
<wgt id='4241'>0.82553E+02</wgt>
<wgt id='4242'>0.82061E+02</wgt>
<wgt id='4243'>0.82849E+02</wgt>
<wgt id='4244'>0.81863E+02</wgt>
<wgt id='4245'>0.82597E+02</wgt>
<wgt id='4246'>0.81594E+02</wgt>
<wgt id='4247'>0.81506E+02</wgt>
<wgt id='4248'>0.82776E+02</wgt>
<wgt id='4249'>0.83282E+02</wgt>
<wgt id='4250'>0.81177E+02</wgt>
<wgt id='4251'>0.83776E+02</wgt>
<wgt id='4252'>0.81370E+02</wgt>
<wgt id='4253'>0.83103E+02</wgt>
<wgt id='4254'>0.81236E+02</wgt>
<wgt id='4255'>0.84069E+02</wgt>
<wgt id='4256'>0.81493E+02</wgt>
<wgt id='4257'>0.80902E+02</wgt>
<wgt id='4258'>0.82738E+02</wgt>
<wgt id='4300'>0.82873E+02</wgt>
<wgt id='4301'>0.84138E+02</wgt>
<wgt id='5000'>0.83229E+02</wgt>
<wgt id='5001'>0.83272E+02</wgt>
<wgt id='5002'>0.83175E+02</wgt>
<wgt id='5003'>0.83248E+02</wgt>
<wgt id='5004'>0.83213E+02</wgt>
<wgt id='5005'>0.83237E+02</wgt>
<wgt id='5006'>0.83218E+02</wgt>
<wgt id='5007'>0.83328E+02</wgt>
<wgt id='5008'>0.83149E+02</wgt>
<wgt id='5009'>0.83319E+02</wgt>
<wgt id='5010'>0.83137E+02</wgt>
<wgt id='5011'>0.83497E+02</wgt>
<wgt id='5012'>0.82971E+02</wgt>
<wgt id='5013'>0.83332E+02</wgt>
<wgt id='5014'>0.83157E+02</wgt>
<wgt id='5015'>0.82829E+02</wgt>
<wgt id='5016'>0.82829E+02</wgt>
<wgt id='5017'>0.83568E+02</wgt>
<wgt id='5018'>0.83001E+02</wgt>
<wgt id='5019'>0.83533E+02</wgt>
<wgt id='5020'>0.82813E+02</wgt>
<wgt id='5021'>0.83329E+02</wgt>
<wgt id='5022'>0.83072E+02</wgt>
<wgt id='5023'>0.83175E+02</wgt>
<wgt id='5024'>0.83358E+02</wgt>
<wgt id='5025'>0.83026E+02</wgt>
<wgt id='5026'>0.83456E+02</wgt>
<wgt id='5027'>0.83294E+02</wgt>
<wgt id='5028'>0.83056E+02</wgt>
<wgt id='5029'>0.84337E+02</wgt>
<wgt id='5030'>0.82607E+02</wgt>
<wgt id='5031'>0.82587E+02</wgt>
<wgt id='5032'>0.85195E+02</wgt>
<wgt id='5033'>0.83138E+02</wgt>
<wgt id='5034'>0.83328E+02</wgt>
<wgt id='5035'>0.83242E+02</wgt>
<wgt id='5036'>0.83215E+02</wgt>
<wgt id='5037'>0.82917E+02</wgt>
<wgt id='5038'>0.83406E+02</wgt>
<wgt id='5039'>0.83408E+02</wgt>
<wgt id='5040'>0.82790E+02</wgt>
<wgt id='5041'>0.82804E+02</wgt>
<wgt id='5042'>0.83678E+02</wgt>
<wgt id='5043'>0.83429E+02</wgt>
<wgt id='5044'>0.83094E+02</wgt>
<wgt id='5045'>0.83643E+02</wgt>
<wgt id='5046'>0.82452E+02</wgt>
<wgt id='5047'>0.83346E+02</wgt>
<wgt id='5048'>0.82723E+02</wgt>
<wgt id='5049'>0.83106E+02</wgt>
<wgt id='5050'>0.83527E+02</wgt>
<wgt id='5051'>0.83523E+02</wgt>
<wgt id='5052'>0.83031E+02</wgt>
<wgt id='5053'>0.83525E+02</wgt>
<wgt id='5054'>0.83385E+02</wgt>
<wgt id='5055'>0.83273E+02</wgt>
<wgt id='5056'>0.83328E+02</wgt>
<wgt id='5057'>0.82819E+02</wgt>
<wgt id='5058'>0.83517E+02</wgt>
<wgt id='5059'>0.83043E+02</wgt>
<wgt id='5060'>0.83340E+02</wgt>
<wgt id='5061'>0.83452E+02</wgt>
<wgt id='5062'>0.83541E+02</wgt>
<wgt id='5063'>0.83483E+02</wgt>
<wgt id='5064'>0.83396E+02</wgt>
<wgt id='5100'>0.83229E+02</wgt>
<wgt id='5101'>0.83218E+02</wgt>
<wgt id='6000'>0.82509E+02</wgt>
<wgt id='6001'>0.81974E+02</wgt>
<wgt id='6002'>0.81649E+02</wgt>
<wgt id='6003'>0.82236E+02</wgt>
<wgt id='6004'>0.83022E+02</wgt>
<wgt id='6005'>0.81891E+02</wgt>
<wgt id='6006'>0.82465E+02</wgt>
<wgt id='6007'>0.81813E+02</wgt>
<wgt id='6008'>0.82933E+02</wgt>
<wgt id='6009'>0.82311E+02</wgt>
<wgt id='6010'>0.82975E+02</wgt>
<wgt id='6011'>0.82496E+02</wgt>
<wgt id='6012'>0.82699E+02</wgt>
<wgt id='6013'>0.82014E+02</wgt>
<wgt id='6014'>0.82060E+02</wgt>
<wgt id='6015'>0.81719E+02</wgt>
<wgt id='6016'>0.83061E+02</wgt>
<wgt id='6017'>0.82030E+02</wgt>
<wgt id='6018'>0.81753E+02</wgt>
<wgt id='6019'>0.82667E+02</wgt>
<wgt id='6020'>0.82713E+02</wgt>
<wgt id='6021'>0.82390E+02</wgt>
<wgt id='6022'>0.82754E+02</wgt>
<wgt id='6023'>0.82431E+02</wgt>
<wgt id='6024'>0.82633E+02</wgt>
<wgt id='6025'>0.83131E+02</wgt>
<wgt id='6026'>0.82357E+02</wgt>
<wgt id='6027'>0.82607E+02</wgt>
<wgt id='6028'>0.81901E+02</wgt>
<wgt id='6029'>0.82193E+02</wgt>
<wgt id='6030'>0.81851E+02</wgt>
<wgt id='6031'>0.82228E+02</wgt>
<wgt id='6032'>0.82473E+02</wgt>
<wgt id='6033'>0.82393E+02</wgt>
<wgt id='6034'>0.82915E+02</wgt>
<wgt id='6035'>0.82577E+02</wgt>
<wgt id='6036'>0.83558E+02</wgt>
<wgt id='6037'>0.82486E+02</wgt>
<wgt id='6038'>0.82384E+02</wgt>
<wgt id='6039'>0.82786E+02</wgt>
<wgt id='6040'>0.82539E+02</wgt>
<wgt id='6041'>0.80905E+02</wgt>
<wgt id='6042'>0.83393E+02</wgt>
<wgt id='7000'>0.80172E+02</wgt>
<wgt id='7001'>0.79362E+02</wgt>
<wgt id='7002'>0.79522E+02</wgt>
<wgt id='7003'>0.79444E+02</wgt>
<wgt id='7004'>0.79440E+02</wgt>
<wgt id='7005'>0.79508E+02</wgt>
<wgt id='7006'>0.79376E+02</wgt>
<wgt id='7007'>0.79883E+02</wgt>
<wgt id='7008'>0.79012E+02</wgt>
<wgt id='7009'>0.79073E+02</wgt>
<wgt id='7010'>0.79824E+02</wgt>
<wgt id='7011'>0.79725E+02</wgt>
<wgt id='7012'>0.79168E+02</wgt>
<wgt id='7013'>0.79405E+02</wgt>
<wgt id='7014'>0.79475E+02</wgt>
<wgt id='7015'>0.79658E+02</wgt>
<wgt id='7016'>0.79089E+02</wgt>
<wgt id='7017'>0.79253E+02</wgt>
<wgt id='7018'>0.79640E+02</wgt>
<wgt id='7019'>0.79901E+02</wgt>
<wgt id='7020'>0.79002E+02</wgt>
<wgt id='7021'>0.80796E+02</wgt>
<wgt id='7022'>0.78143E+02</wgt>
<wgt id='7023'>0.78188E+02</wgt>
<wgt id='7024'>0.80706E+02</wgt>
<wgt id='7025'>0.77767E+02</wgt>
<wgt id='7026'>0.81053E+02</wgt>
<wgt id='7027'>0.78712E+02</wgt>
<wgt id='7028'>0.80257E+02</wgt>
<wgt id='8000'>0.80414E+02</wgt>
<wgt id='8001'>0.80405E+02</wgt>
<wgt id='8002'>0.80438E+02</wgt>
<wgt id='8003'>0.80414E+02</wgt>
<wgt id='8004'>0.80412E+02</wgt>
<wgt id='8005'>0.80257E+02</wgt>
<wgt id='8006'>0.80515E+02</wgt>
<wgt id='8007'>0.80583E+02</wgt>
<wgt id='8008'>0.80587E+02</wgt>
<wgt id='8009'>0.80756E+02</wgt>
<wgt id='8010'>0.80318E+02</wgt>
<wgt id='8011'>0.80453E+02</wgt>
<wgt id='8012'>0.80124E+02</wgt>
<wgt id='8013'>0.80244E+02</wgt>
<wgt id='8014'>0.80628E+02</wgt>
<wgt id='8015'>0.80357E+02</wgt>
<wgt id='8016'>0.80554E+02</wgt>
<wgt id='8017'>0.80558E+02</wgt>
<wgt id='8018'>0.80752E+02</wgt>
<wgt id='8019'>0.80191E+02</wgt>
<wgt id='8020'>0.80817E+02</wgt>
<wgt id='8021'>0.80226E+02</wgt>
<wgt id='8022'>0.81139E+02</wgt>
<wgt id='8023'>0.80047E+02</wgt>
<wgt id='8024'>0.79720E+02</wgt>
<wgt id='8025'>0.79857E+02</wgt>
<wgt id='8026'>0.80381E+02</wgt>
<wgt id='8027'>0.80601E+02</wgt>
<wgt id='8028'>0.80432E+02</wgt>
<wgt id='8029'>0.82458E+02</wgt>
<wgt id='3000'>0.81104E+02</wgt>
<wgt id='3001'>0.83656E+02</wgt>
<wgt id='3002'>0.80170E+02</wgt>
<wgt id='3003'>0.82218E+02</wgt>
<wgt id='3004'>0.81638E+02</wgt>
<wgt id='3005'>0.82028E+02</wgt>
<wgt id='3006'>0.81285E+02</wgt>
<wgt id='3007'>0.78279E+02</wgt>
<wgt id='3008'>0.77809E+02</wgt>
<wgt id='3009'>0.79991E+02</wgt>
<wgt id='3010'>0.87376E+02</wgt>
<wgt id='3011'>0.82984E+02</wgt>
<wgt id='3012'>0.78802E+02</wgt>
<wgt id='3013'>0.81373E+02</wgt>
<wgt id='3014'>0.80294E+02</wgt>
<wgt id='3015'>0.79721E+02</wgt>
<wgt id='3016'>0.80676E+02</wgt>
<wgt id='3017'>0.80877E+02</wgt>
<wgt id='3018'>0.78961E+02</wgt>
<wgt id='3019'>0.79884E+02</wgt>
<wgt id='3020'>0.80474E+02</wgt>
<wgt id='3021'>0.80437E+02</wgt>
<wgt id='3022'>0.79191E+02</wgt>
<wgt id='3023'>0.79324E+02</wgt>
<wgt id='3024'>0.80765E+02</wgt>
<wgt id='3025'>0.78754E+02</wgt>
<wgt id='3026'>0.80542E+02</wgt>
<wgt id='3027'>0.83352E+02</wgt>
<wgt id='3028'>0.77848E+02</wgt>
<wgt id='3029'>0.80926E+02</wgt>
<wgt id='3030'>0.80008E+02</wgt>
<wgt id='3031'>0.86002E+02</wgt>
<wgt id='3032'>0.79859E+02</wgt>
<wgt id='3033'>0.79093E+02</wgt>
<wgt id='3034'>0.81340E+02</wgt>
<wgt id='3035'>0.85738E+02</wgt>
<wgt id='3036'>0.81604E+02</wgt>
<wgt id='3037'>0.81048E+02</wgt>
<wgt id='3038'>0.81617E+02</wgt>
<wgt id='3039'>0.80718E+02</wgt>
<wgt id='3040'>0.79976E+02</wgt>
<wgt id='3041'>0.81029E+02</wgt>
<wgt id='3042'>0.80568E+02</wgt>
<wgt id='3043'>0.82259E+02</wgt>
<wgt id='3044'>0.81926E+02</wgt>
<wgt id='3045'>0.81023E+02</wgt>
<wgt id='3046'>0.80762E+02</wgt>
<wgt id='3047'>0.82181E+02</wgt>
<wgt id='3048'>0.82339E+02</wgt>
<wgt id='3049'>0.82457E+02</wgt>
<wgt id='3050'>0.84344E+02</wgt>
<wgt id='3051'>0.80297E+02</wgt>
<wgt id='3052'>0.79634E+02</wgt>
<wgt id='3053'>0.82698E+02</wgt>
<wgt id='3054'>0.79046E+02</wgt>
<wgt id='3055'>0.80865E+02</wgt>
<wgt id='3056'>0.80195E+02</wgt>
<wgt id='3057'>0.79991E+02</wgt>
<wgt id='3058'>0.82768E+02</wgt>
<wgt id='3059'>0.78811E+02</wgt>
<wgt id='3060'>0.80647E+02</wgt>
<wgt id='3061'>0.81564E+02</wgt>
<wgt id='3062'>0.82329E+02</wgt>
<wgt id='3063'>0.82059E+02</wgt>
<wgt id='3064'>0.82536E+02</wgt>
<wgt id='3065'>0.79031E+02</wgt>
<wgt id='3066'>0.82094E+02</wgt>
<wgt id='3067'>0.80772E+02</wgt>
<wgt id='3068'>0.79779E+02</wgt>
<wgt id='3069'>0.80393E+02</wgt>
<wgt id='3070'>0.82390E+02</wgt>
<wgt id='3071'>0.81251E+02</wgt>
<wgt id='3072'>0.82479E+02</wgt>
<wgt id='3073'>0.80159E+02</wgt>
<wgt id='3074'>0.79929E+02</wgt>
<wgt id='3075'>0.81227E+02</wgt>
<wgt id='3076'>0.84476E+02</wgt>
<wgt id='3077'>0.81978E+02</wgt>
<wgt id='3078'>0.80522E+02</wgt>
<wgt id='3079'>0.81358E+02</wgt>
<wgt id='3080'>0.84624E+02</wgt>
<wgt id='3081'>0.81949E+02</wgt>
<wgt id='3082'>0.80676E+02</wgt>
<wgt id='3083'>0.80957E+02</wgt>
<wgt id='3084'>0.79403E+02</wgt>
<wgt id='3085'>0.81478E+02</wgt>
<wgt id='3086'>0.82631E+02</wgt>
<wgt id='3087'>0.79763E+02</wgt>
<wgt id='3088'>0.80975E+02</wgt>
<wgt id='3089'>0.82414E+02</wgt>
<wgt id='3090'>0.79323E+02</wgt>
<wgt id='3091'>0.79605E+02</wgt>
<wgt id='3092'>0.81819E+02</wgt>
<wgt id='3093'>0.80908E+02</wgt>
<wgt id='3094'>0.81569E+02</wgt>
<wgt id='3095'>0.79302E+02</wgt>
<wgt id='3096'>0.80604E+02</wgt>
<wgt id='3097'>0.85765E+02</wgt>
<wgt id='3098'>0.80485E+02</wgt>
<wgt id='3099'>0.78891E+02</wgt>
<wgt id='3100'>0.79980E+02</wgt>
<wgt id='3200'>0.79236E+02</wgt>
<wgt id='3201'>0.78299E+02</wgt>
<wgt id='3202'>0.77245E+02</wgt>
<wgt id='3203'>0.79742E+02</wgt>
<wgt id='3204'>0.79211E+02</wgt>
<wgt id='3205'>0.79498E+02</wgt>
<wgt id='3206'>0.80464E+02</wgt>
<wgt id='3207'>0.79818E+02</wgt>
<wgt id='3208'>0.79283E+02</wgt>
<wgt id='3209'>0.79230E+02</wgt>
<wgt id='3210'>0.79376E+02</wgt>
<wgt id='3211'>0.79132E+02</wgt>
<wgt id='3212'>0.79439E+02</wgt>
<wgt id='3213'>0.80189E+02</wgt>
<wgt id='3214'>0.78765E+02</wgt>
<wgt id='3215'>0.79009E+02</wgt>
<wgt id='3216'>0.79807E+02</wgt>
<wgt id='3217'>0.79854E+02</wgt>
<wgt id='3218'>0.80627E+02</wgt>
<wgt id='3219'>0.78847E+02</wgt>
<wgt id='3220'>0.78190E+02</wgt>
<wgt id='3221'>0.79000E+02</wgt>
<wgt id='3222'>0.79796E+02</wgt>
<wgt id='3223'>0.79537E+02</wgt>
<wgt id='3224'>0.78978E+02</wgt>
<wgt id='3225'>0.79981E+02</wgt>
<wgt id='3226'>0.78267E+02</wgt>
<wgt id='3227'>0.78301E+02</wgt>
<wgt id='3228'>0.79168E+02</wgt>
<wgt id='3229'>0.80408E+02</wgt>
<wgt id='3230'>0.79363E+02</wgt>
<wgt id='3231'>0.79526E+02</wgt>
<wgt id='3232'>0.79510E+02</wgt>
<wgt id='3233'>0.78990E+02</wgt>
<wgt id='3234'>0.77616E+02</wgt>
<wgt id='3235'>0.79179E+02</wgt>
<wgt id='3236'>0.80198E+02</wgt>
<wgt id='3237'>0.79595E+02</wgt>
<wgt id='3238'>0.79192E+02</wgt>
<wgt id='3239'>0.78343E+02</wgt>
<wgt id='3240'>0.77578E+02</wgt>
<wgt id='3241'>0.79913E+02</wgt>
<wgt id='3242'>0.79724E+02</wgt>
<wgt id='3243'>0.80400E+02</wgt>
<wgt id='3244'>0.80182E+02</wgt>
<wgt id='3245'>0.80043E+02</wgt>
<wgt id='3246'>0.77763E+02</wgt>
<wgt id='3247'>0.77436E+02</wgt>
<wgt id='3248'>0.79025E+02</wgt>
<wgt id='3249'>0.78307E+02</wgt>
<wgt id='3250'>0.78736E+02</wgt>
<wgt id='3251'>0.78717E+02</wgt>
<wgt id='3252'>0.80496E+02</wgt>
<wgt id='3253'>0.80161E+02</wgt>
<wgt id='3254'>0.79066E+02</wgt>
<wgt id='3255'>0.77697E+02</wgt>
<wgt id='3256'>0.78970E+02</wgt>
<wgt id='3257'>0.78886E+02</wgt>
<wgt id='3258'>0.78057E+02</wgt>
<wgt id='3259'>0.77772E+02</wgt>
<wgt id='3260'>0.79323E+02</wgt>
<wgt id='3261'>0.77889E+02</wgt>
<wgt id='3262'>0.80881E+02</wgt>
<wgt id='3263'>0.79327E+02</wgt>
<wgt id='3264'>0.79882E+02</wgt>
<wgt id='3265'>0.80343E+02</wgt>
<wgt id='3266'>0.79595E+02</wgt>
<wgt id='3267'>0.79520E+02</wgt>
<wgt id='3268'>0.77773E+02</wgt>
<wgt id='3269'>0.78686E+02</wgt>
<wgt id='3270'>0.81400E+02</wgt>
<wgt id='3271'>0.78967E+02</wgt>
<wgt id='3272'>0.79164E+02</wgt>
<wgt id='3273'>0.79404E+02</wgt>
<wgt id='3274'>0.78935E+02</wgt>
<wgt id='3275'>0.80345E+02</wgt>
<wgt id='3276'>0.78336E+02</wgt>
<wgt id='3277'>0.79342E+02</wgt>
<wgt id='3278'>0.80391E+02</wgt>
<wgt id='3279'>0.79405E+02</wgt>
<wgt id='3280'>0.79040E+02</wgt>
<wgt id='3281'>0.80243E+02</wgt>
<wgt id='3282'>0.79246E+02</wgt>
<wgt id='3283'>0.79887E+02</wgt>
<wgt id='3284'>0.77924E+02</wgt>
<wgt id='3285'>0.79659E+02</wgt>
<wgt id='3286'>0.78042E+02</wgt>
<wgt id='3287'>0.81803E+02</wgt>
<wgt id='3288'>0.77896E+02</wgt>
<wgt id='3289'>0.80185E+02</wgt>
<wgt id='3290'>0.77797E+02</wgt>
<wgt id='3291'>0.79048E+02</wgt>
<wgt id='3292'>0.79084E+02</wgt>
<wgt id='3293'>0.78995E+02</wgt>
<wgt id='3294'>0.79805E+02</wgt>
<wgt id='3295'>0.78976E+02</wgt>
<wgt id='3296'>0.79509E+02</wgt>
<wgt id='3297'>0.79887E+02</wgt>
<wgt id='3298'>0.77726E+02</wgt>
<wgt id='3299'>0.79857E+02</wgt>
<wgt id='3300'>0.80144E+02</wgt>
<wgt id='3301'>0.77661E+02</wgt>
<wgt id='3302'>0.80082E+02</wgt>
<wgt id='3400'>0.78195E+02</wgt>
<wgt id='3401'>0.78867E+02</wgt>
<wgt id='3402'>0.76252E+02</wgt>
<wgt id='3403'>0.79033E+02</wgt>
<wgt id='3404'>0.79540E+02</wgt>
<wgt id='3405'>0.78800E+02</wgt>
<wgt id='3406'>0.79465E+02</wgt>
<wgt id='3407'>0.78098E+02</wgt>
<wgt id='3408'>0.78472E+02</wgt>
<wgt id='3409'>0.77963E+02</wgt>
<wgt id='3410'>0.78906E+02</wgt>
<wgt id='3411'>0.79700E+02</wgt>
<wgt id='3412'>0.78839E+02</wgt>
<wgt id='3413'>0.77792E+02</wgt>
<wgt id='3414'>0.77971E+02</wgt>
<wgt id='3415'>0.78437E+02</wgt>
<wgt id='3416'>0.77950E+02</wgt>
<wgt id='3417'>0.79081E+02</wgt>
<wgt id='3418'>0.77627E+02</wgt>
<wgt id='3419'>0.77758E+02</wgt>
<wgt id='3420'>0.77788E+02</wgt>
<wgt id='3421'>0.77388E+02</wgt>
<wgt id='3422'>0.77489E+02</wgt>
<wgt id='3423'>0.80079E+02</wgt>
<wgt id='3424'>0.78404E+02</wgt>
<wgt id='3425'>0.77204E+02</wgt>
<wgt id='3426'>0.77385E+02</wgt>
<wgt id='3427'>0.76735E+02</wgt>
<wgt id='3428'>0.78091E+02</wgt>
<wgt id='3429'>0.77085E+02</wgt>
<wgt id='3430'>0.77604E+02</wgt>
<wgt id='3431'>0.78763E+02</wgt>
<wgt id='3432'>0.79461E+02</wgt>
<wgt id='3433'>0.78166E+02</wgt>
<wgt id='3434'>0.79864E+02</wgt>
<wgt id='3435'>0.79423E+02</wgt>
<wgt id='3436'>0.78177E+02</wgt>
<wgt id='3437'>0.79983E+02</wgt>
<wgt id='3438'>0.77720E+02</wgt>
<wgt id='3439'>0.76090E+02</wgt>
<wgt id='3440'>0.78704E+02</wgt>
<wgt id='3441'>0.78632E+02</wgt>
<wgt id='3442'>0.78144E+02</wgt>
<wgt id='3443'>0.79245E+02</wgt>
<wgt id='3444'>0.77205E+02</wgt>
<wgt id='3445'>0.77365E+02</wgt>
<wgt id='3446'>0.78761E+02</wgt>
<wgt id='3447'>0.77933E+02</wgt>
<wgt id='3448'>0.79749E+02</wgt>
<wgt id='3449'>0.78309E+02</wgt>
<wgt id='3450'>0.77271E+02</wgt>
<wgt id='3451'>0.78904E+02</wgt>
<wgt id='3452'>0.77504E+02</wgt>
<wgt id='3453'>0.76492E+02</wgt>
<wgt id='3454'>0.78268E+02</wgt>
<wgt id='3455'>0.78896E+02</wgt>
<wgt id='3456'>0.78485E+02</wgt>
<wgt id='3457'>0.77890E+02</wgt>
<wgt id='3458'>0.77387E+02</wgt>
<wgt id='3459'>0.78291E+02</wgt>
<wgt id='3460'>0.77948E+02</wgt>
<wgt id='3461'>0.77416E+02</wgt>
<wgt id='3462'>0.78509E+02</wgt>
<wgt id='3463'>0.77217E+02</wgt>
<wgt id='3464'>0.78019E+02</wgt>
<wgt id='3465'>0.78731E+02</wgt>
<wgt id='3466'>0.79239E+02</wgt>
<wgt id='3467'>0.77902E+02</wgt>
<wgt id='3468'>0.77376E+02</wgt>
<wgt id='3469'>0.76610E+02</wgt>
<wgt id='3470'>0.77484E+02</wgt>
<wgt id='3471'>0.77340E+02</wgt>
<wgt id='3472'>0.76178E+02</wgt>
<wgt id='3473'>0.80298E+02</wgt>
<wgt id='3474'>0.77262E+02</wgt>
<wgt id='3475'>0.78654E+02</wgt>
<wgt id='3476'>0.78106E+02</wgt>
<wgt id='3477'>0.76827E+02</wgt>
<wgt id='3478'>0.79230E+02</wgt>
<wgt id='3479'>0.77724E+02</wgt>
<wgt id='3480'>0.78966E+02</wgt>
<wgt id='3481'>0.79452E+02</wgt>
<wgt id='3482'>0.78513E+02</wgt>
<wgt id='3483'>0.78191E+02</wgt>
<wgt id='3484'>0.77314E+02</wgt>
<wgt id='3485'>0.77340E+02</wgt>
<wgt id='3486'>0.76048E+02</wgt>
<wgt id='3487'>0.76796E+02</wgt>
<wgt id='3488'>0.77932E+02</wgt>
<wgt id='3489'>0.77061E+02</wgt>
<wgt id='3490'>0.79024E+02</wgt>
<wgt id='3491'>0.80447E+02</wgt>
<wgt id='3492'>0.77576E+02</wgt>
<wgt id='3493'>0.80335E+02</wgt>
<wgt id='3494'>0.76649E+02</wgt>
<wgt id='3495'>0.79771E+02</wgt>
<wgt id='3496'>0.77040E+02</wgt>
<wgt id='3497'>0.77949E+02</wgt>
<wgt id='3498'>0.79795E+02</wgt>
<wgt id='3499'>0.77974E+02</wgt>
<wgt id='3500'>0.80362E+02</wgt>
</rwgt>
</event>
<event>
     13 322200  8.11039E+01  1.01318E+02 -1.00000E+00  1.21993E-01
      21    -1     0     0   503   504  0.000000000E+00  0.000000000E+00  2.592570325E+03  2.592570325E+03  0.000000000E+00  0.00000E+00  9.000E+00
      21    -1     0     0   504   505  0.000000000E+00  0.000000000E+00 -1.567359580E+02  1.567359580E+02  0.000000000E+00  0.00000E+00  9.000E+00
       6     2     1     2   502     0  9.794187530E+01 -8.218426494E+01  3.528621340E+02  4.123580515E+02  1.708233377E+02  0.00000E+00  9.000E+00
      -6     2     1     2     0   505 -3.838421878E+00  1.197315918E+02 -3.856725657E+01  2.129908243E+02  1.718350092E+02  0.00000E+00  9.000E+00
      21     1     1     2   503   502 -9.410345342E+01 -3.754732684E+01  2.121539490E+03  2.123957408E+03  4.315837288E-05  0.00000E+00  9.000E+00
      24     2     3     3     0     0  1.016707080E+02 -1.153689394E+02  2.566242289E+02  3.103655773E+02  8.260672912E+01  0.00000E+00  9.000E+00
       5     1     3     3   502     0 -3.728832654E+00  3.318467447E+01  9.623790514E+01  1.019924742E+02  5.060000000E+00  0.00000E+00 -1.000E+00
     -24     2     4     4     0     0  4.406379928E+01  1.145053485E+02  6.289926171E+00  1.469627480E+02  8.065601589E+01  0.00000E+00  9.000E+00
      -5     1     4     4     0   505 -4.790222116E+01  5.226243321E+00 -4.485718274E+01  6.602807626E+01  5.060000000E+00  0.00000E+00  1.000E+00
     -15     1     6     6     0     0  1.093428144E+02 -9.873142137E+01  1.853440971E+02  2.367685297E+02  1.777000000E+00  0.00000E+00  1.000E+00
      16     1     6     6     0     0 -7.672106410E+00 -1.663751804E+01  7.128013181E+01  7.359704759E+01  0.000000000E+00  0.00000E+00 -1.000E+00
      11     1     8     8     0     0 -2.042892620E+01  4.951017230E+01 -8.448945319E+00  5.422160883E+01  5.100000000E-04  0.00000E+00 -1.000E+00
     -12     1     8     8     0     0  6.449272548E+01  6.499517617E+01  1.473887149E+01  9.274113919E+01  0.000000000E+00  0.00000E+00  1.000E+00
#rwgt            1           1   903.81052062439505               10       26180           0
<rwgt>
<wgt id='1001'>0.81104E+02</wgt>
<wgt id='1002'>0.75719E+02</wgt>
<wgt id='1003'>0.86836E+02</wgt>
<wgt id='1004'>0.68925E+02</wgt>
<wgt id='1005'>0.64369E+02</wgt>
<wgt id='1006'>0.73771E+02</wgt>
<wgt id='1007'>0.96901E+02</wgt>
<wgt id='1008'>0.90433E+02</wgt>
<wgt id='1009'>0.10379E+03</wgt>
<wgt id='2000'>0.81104E+02</wgt>
<wgt id='2001'>0.81121E+02</wgt>
<wgt id='2002'>0.80908E+02</wgt>
<wgt id='2003'>0.81124E+02</wgt>
<wgt id='2004'>0.81275E+02</wgt>
<wgt id='2005'>0.81133E+02</wgt>
<wgt id='2006'>0.81264E+02</wgt>
<wgt id='2007'>0.81241E+02</wgt>
<wgt id='2008'>0.81420E+02</wgt>
<wgt id='2009'>0.80983E+02</wgt>
<wgt id='2010'>0.81048E+02</wgt>
<wgt id='2011'>0.80858E+02</wgt>
<wgt id='2012'>0.81218E+02</wgt>
<wgt id='2013'>0.81206E+02</wgt>
<wgt id='2014'>0.81324E+02</wgt>
<wgt id='2015'>0.81278E+02</wgt>
<wgt id='2016'>0.81144E+02</wgt>
<wgt id='2017'>0.81180E+02</wgt>
<wgt id='2018'>0.81066E+02</wgt>
<wgt id='2019'>0.81123E+02</wgt>
<wgt id='2020'>0.81031E+02</wgt>
<wgt id='2021'>0.80993E+02</wgt>
<wgt id='2022'>0.81148E+02</wgt>
<wgt id='2023'>0.81186E+02</wgt>
<wgt id='2024'>0.81007E+02</wgt>
<wgt id='2025'>0.80989E+02</wgt>
<wgt id='2026'>0.81035E+02</wgt>
<wgt id='2027'>0.80843E+02</wgt>
<wgt id='2028'>0.81174E+02</wgt>
<wgt id='2029'>0.80750E+02</wgt>
<wgt id='2030'>0.81100E+02</wgt>
<wgt id='2031'>0.80828E+02</wgt>
<wgt id='2032'>0.81194E+02</wgt>
<wgt id='2033'>0.81006E+02</wgt>
<wgt id='2034'>0.80968E+02</wgt>
<wgt id='2035'>0.81096E+02</wgt>
<wgt id='2036'>0.81292E+02</wgt>
<wgt id='2037'>0.81096E+02</wgt>
<wgt id='2038'>0.81050E+02</wgt>
<wgt id='2039'>0.81122E+02</wgt>
<wgt id='2040'>0.81036E+02</wgt>
<wgt id='2041'>0.81093E+02</wgt>
<wgt id='2042'>0.81145E+02</wgt>
<wgt id='2043'>0.81058E+02</wgt>
<wgt id='2044'>0.81163E+02</wgt>
<wgt id='2045'>0.81117E+02</wgt>
<wgt id='2046'>0.81109E+02</wgt>
<wgt id='2047'>0.81087E+02</wgt>
<wgt id='2048'>0.81063E+02</wgt>
<wgt id='2049'>0.81035E+02</wgt>
<wgt id='2050'>0.81064E+02</wgt>
<wgt id='2051'>0.81089E+02</wgt>
<wgt id='2052'>0.81178E+02</wgt>
<wgt id='2053'>0.81093E+02</wgt>
<wgt id='2054'>0.81100E+02</wgt>
<wgt id='2055'>0.81117E+02</wgt>
<wgt id='2056'>0.81062E+02</wgt>
<wgt id='2057'>0.81131E+02</wgt>
<wgt id='2058'>0.81118E+02</wgt>
<wgt id='2059'>0.81104E+02</wgt>
<wgt id='2060'>0.81103E+02</wgt>
<wgt id='2061'>0.81090E+02</wgt>
<wgt id='2062'>0.81167E+02</wgt>
<wgt id='2063'>0.81127E+02</wgt>
<wgt id='2064'>0.81120E+02</wgt>
<wgt id='2065'>0.81175E+02</wgt>
<wgt id='2066'>0.81096E+02</wgt>
<wgt id='2067'>0.81124E+02</wgt>
<wgt id='2068'>0.81119E+02</wgt>
<wgt id='2069'>0.81108E+02</wgt>
<wgt id='2070'>0.81112E+02</wgt>
<wgt id='2071'>0.81103E+02</wgt>
<wgt id='2072'>0.81104E+02</wgt>
<wgt id='2073'>0.81120E+02</wgt>
<wgt id='2074'>0.81088E+02</wgt>
<wgt id='2075'>0.81087E+02</wgt>
<wgt id='2076'>0.81093E+02</wgt>
<wgt id='2077'>0.81147E+02</wgt>
<wgt id='2078'>0.81115E+02</wgt>
<wgt id='2079'>0.81085E+02</wgt>
<wgt id='2080'>0.81111E+02</wgt>
<wgt id='2081'>0.81096E+02</wgt>
<wgt id='2082'>0.81116E+02</wgt>
<wgt id='2083'>0.81133E+02</wgt>
<wgt id='2084'>0.81110E+02</wgt>
<wgt id='2085'>0.81105E+02</wgt>
<wgt id='2086'>0.81094E+02</wgt>
<wgt id='2087'>0.81114E+02</wgt>
<wgt id='2088'>0.81100E+02</wgt>
<wgt id='2089'>0.81094E+02</wgt>
<wgt id='2090'>0.81119E+02</wgt>
<wgt id='2091'>0.81104E+02</wgt>
<wgt id='2092'>0.81123E+02</wgt>
<wgt id='2093'>0.81092E+02</wgt>
<wgt id='2094'>0.81108E+02</wgt>
<wgt id='2095'>0.81117E+02</wgt>
<wgt id='2096'>0.81094E+02</wgt>
<wgt id='2097'>0.81115E+02</wgt>
<wgt id='2098'>0.81101E+02</wgt>
<wgt id='2099'>0.81114E+02</wgt>
<wgt id='2100'>0.81104E+02</wgt>
<wgt id='2101'>0.78766E+02</wgt>
<wgt id='2102'>0.83526E+02</wgt>
<wgt id='2200'>0.81185E+02</wgt>
<wgt id='2201'>0.70195E+02</wgt>
<wgt id='2202'>0.72315E+02</wgt>
<wgt id='2203'>0.74598E+02</wgt>
<wgt id='2204'>0.76720E+02</wgt>
<wgt id='2205'>0.80146E+02</wgt>
<wgt id='2206'>0.82427E+02</wgt>
<wgt id='2207'>0.85539E+02</wgt>
<wgt id='2208'>0.87811E+02</wgt>
<wgt id='2300'>0.84806E+02</wgt>
<wgt id='2301'>0.84907E+02</wgt>
<wgt id='2302'>0.84728E+02</wgt>
<wgt id='2303'>0.84851E+02</wgt>
<wgt id='2304'>0.85021E+02</wgt>
<wgt id='2305'>0.84944E+02</wgt>
<wgt id='2306'>0.84770E+02</wgt>
<wgt id='2307'>0.84979E+02</wgt>
<wgt id='2308'>0.84744E+02</wgt>
<wgt id='2309'>0.85009E+02</wgt>
<wgt id='2310'>0.84670E+02</wgt>
<wgt id='2311'>0.84690E+02</wgt>
<wgt id='2312'>0.84938E+02</wgt>
<wgt id='2313'>0.84802E+02</wgt>
<wgt id='2314'>0.84907E+02</wgt>
<wgt id='2315'>0.84732E+02</wgt>
<wgt id='2316'>0.84837E+02</wgt>
<wgt id='2317'>0.84886E+02</wgt>
<wgt id='2318'>0.84946E+02</wgt>
<wgt id='2319'>0.84729E+02</wgt>
<wgt id='2320'>0.84734E+02</wgt>
<wgt id='2321'>0.84706E+02</wgt>
<wgt id='2322'>0.84799E+02</wgt>
<wgt id='2323'>0.84723E+02</wgt>
<wgt id='2324'>0.84688E+02</wgt>
<wgt id='2325'>0.84879E+02</wgt>
<wgt id='2326'>0.84833E+02</wgt>
<wgt id='2327'>0.84837E+02</wgt>
<wgt id='2328'>0.84609E+02</wgt>
<wgt id='2329'>0.84608E+02</wgt>
<wgt id='2330'>0.85195E+02</wgt>
<wgt id='2331'>0.84998E+02</wgt>
<wgt id='2332'>0.84848E+02</wgt>
<wgt id='2333'>0.84967E+02</wgt>
<wgt id='2334'>0.84823E+02</wgt>
<wgt id='2335'>0.85119E+02</wgt>
<wgt id='2336'>0.84895E+02</wgt>
<wgt id='2337'>0.84763E+02</wgt>
<wgt id='2338'>0.84819E+02</wgt>
<wgt id='2339'>0.84853E+02</wgt>
<wgt id='2340'>0.84705E+02</wgt>
<wgt id='2341'>0.84843E+02</wgt>
<wgt id='2342'>0.84720E+02</wgt>
<wgt id='2343'>0.84689E+02</wgt>
<wgt id='2344'>0.84856E+02</wgt>
<wgt id='2345'>0.84877E+02</wgt>
<wgt id='2346'>0.84905E+02</wgt>
<wgt id='2347'>0.84817E+02</wgt>
<wgt id='2348'>0.84811E+02</wgt>
<wgt id='2349'>0.84780E+02</wgt>
<wgt id='2350'>0.84734E+02</wgt>
<wgt id='2351'>0.84908E+02</wgt>
<wgt id='2352'>0.84748E+02</wgt>
<wgt id='2353'>0.84786E+02</wgt>
<wgt id='2354'>0.84824E+02</wgt>
<wgt id='2355'>0.84705E+02</wgt>
<wgt id='2356'>0.84821E+02</wgt>
<wgt id='2357'>0.84805E+02</wgt>
<wgt id='2358'>0.84737E+02</wgt>
<wgt id='2359'>0.84819E+02</wgt>
<wgt id='2360'>0.84841E+02</wgt>
<wgt id='2361'>0.84835E+02</wgt>
<wgt id='2362'>0.84837E+02</wgt>
<wgt id='2363'>0.84841E+02</wgt>
<wgt id='2364'>0.84777E+02</wgt>
<wgt id='2365'>0.84790E+02</wgt>
<wgt id='2366'>0.84828E+02</wgt>
<wgt id='2367'>0.84746E+02</wgt>
<wgt id='2368'>0.84835E+02</wgt>
<wgt id='2369'>0.84789E+02</wgt>
<wgt id='2370'>0.84818E+02</wgt>
<wgt id='2371'>0.84786E+02</wgt>
<wgt id='2372'>0.84804E+02</wgt>
<wgt id='2373'>0.84763E+02</wgt>
<wgt id='2374'>0.84843E+02</wgt>
<wgt id='2375'>0.84795E+02</wgt>
<wgt id='2376'>0.84808E+02</wgt>
<wgt id='2377'>0.84824E+02</wgt>
<wgt id='2378'>0.84823E+02</wgt>
<wgt id='2379'>0.84802E+02</wgt>
<wgt id='2380'>0.84794E+02</wgt>
<wgt id='2381'>0.84809E+02</wgt>
<wgt id='2382'>0.84792E+02</wgt>
<wgt id='2383'>0.84809E+02</wgt>
<wgt id='2384'>0.84796E+02</wgt>
<wgt id='2385'>0.84813E+02</wgt>
<wgt id='2386'>0.84783E+02</wgt>
<wgt id='2387'>0.84791E+02</wgt>
<wgt id='2388'>0.84801E+02</wgt>
<wgt id='2389'>0.84808E+02</wgt>
<wgt id='2390'>0.84810E+02</wgt>
<wgt id='2391'>0.84809E+02</wgt>
<wgt id='2392'>0.84810E+02</wgt>
<wgt id='2393'>0.84808E+02</wgt>
<wgt id='2394'>0.84822E+02</wgt>
<wgt id='2395'>0.84806E+02</wgt>
<wgt id='2396'>0.84800E+02</wgt>
<wgt id='2397'>0.84790E+02</wgt>
<wgt id='2398'>0.84804E+02</wgt>
<wgt id='2399'>0.84818E+02</wgt>
<wgt id='2400'>0.84808E+02</wgt>
<wgt id='2401'>0.82359E+02</wgt>
<wgt id='2402'>0.87192E+02</wgt>
<wgt id='2500'>0.81344E+02</wgt>
<wgt id='2501'>0.86276E+02</wgt>
<wgt id='2600'>0.78630E+02</wgt>
<wgt id='2601'>0.78599E+02</wgt>
<wgt id='2602'>0.78587E+02</wgt>
<wgt id='2603'>0.78594E+02</wgt>
<wgt id='2604'>0.78689E+02</wgt>
<wgt id='2605'>0.78517E+02</wgt>
<wgt id='2606'>0.78479E+02</wgt>
<wgt id='2607'>0.78744E+02</wgt>
<wgt id='2608'>0.78575E+02</wgt>
<wgt id='2609'>0.78559E+02</wgt>
<wgt id='2610'>0.78581E+02</wgt>
<wgt id='2611'>0.78563E+02</wgt>
<wgt id='2612'>0.78902E+02</wgt>
<wgt id='2613'>0.78596E+02</wgt>
<wgt id='2614'>0.78603E+02</wgt>
<wgt id='2615'>0.78478E+02</wgt>
<wgt id='2616'>0.78608E+02</wgt>
<wgt id='2617'>0.78481E+02</wgt>
<wgt id='2618'>0.78446E+02</wgt>
<wgt id='2619'>0.78682E+02</wgt>
<wgt id='2620'>0.78634E+02</wgt>
<wgt id='2621'>0.78621E+02</wgt>
<wgt id='2622'>0.78764E+02</wgt>
<wgt id='2623'>0.78627E+02</wgt>
<wgt id='2624'>0.78635E+02</wgt>
<wgt id='2625'>0.78567E+02</wgt>
<wgt id='2626'>0.78615E+02</wgt>
<wgt id='2627'>0.78603E+02</wgt>
<wgt id='2628'>0.78645E+02</wgt>
<wgt id='2629'>0.78631E+02</wgt>
<wgt id='2630'>0.78633E+02</wgt>
<wgt id='2631'>0.78594E+02</wgt>
<wgt id='2632'>0.78641E+02</wgt>
<wgt id='2633'>0.78614E+02</wgt>
<wgt id='2634'>0.78615E+02</wgt>
<wgt id='2635'>0.78624E+02</wgt>
<wgt id='2636'>0.78616E+02</wgt>
<wgt id='2637'>0.78632E+02</wgt>
<wgt id='2638'>0.78648E+02</wgt>
<wgt id='2639'>0.78629E+02</wgt>
<wgt id='2640'>0.78629E+02</wgt>
<wgt id='2641'>0.78640E+02</wgt>
<wgt id='2642'>0.78637E+02</wgt>
<wgt id='2643'>0.78635E+02</wgt>
<wgt id='2644'>0.78625E+02</wgt>
<wgt id='2645'>0.78630E+02</wgt>
<wgt id='2646'>0.78629E+02</wgt>
<wgt id='2647'>0.78633E+02</wgt>
<wgt id='2648'>0.78630E+02</wgt>
<wgt id='2649'>0.78633E+02</wgt>
<wgt id='2650'>0.78629E+02</wgt>
<wgt id='2651'>0.77175E+02</wgt>
<wgt id='2652'>0.79984E+02</wgt>
<wgt id='2700'>0.75788E+02</wgt>
<wgt id='2701'>0.77175E+02</wgt>
<wgt id='2702'>0.77948E+02</wgt>
<wgt id='2703'>0.79217E+02</wgt>
<wgt id='2704'>0.79984E+02</wgt>
<wgt id='2705'>0.81265E+02</wgt>
<wgt id='2800'>0.79965E+02</wgt>
<wgt id='4000'>0.80035E+02</wgt>
<wgt id='4001'>0.80387E+02</wgt>
<wgt id='4002'>0.79932E+02</wgt>
<wgt id='4003'>0.80451E+02</wgt>
<wgt id='4004'>0.79544E+02</wgt>
<wgt id='4005'>0.79690E+02</wgt>
<wgt id='4006'>0.80360E+02</wgt>
<wgt id='4007'>0.80990E+02</wgt>
<wgt id='4008'>0.79097E+02</wgt>
<wgt id='4009'>0.80490E+02</wgt>
<wgt id='4010'>0.79640E+02</wgt>
<wgt id='4011'>0.80325E+02</wgt>
<wgt id='4012'>0.79750E+02</wgt>
<wgt id='4013'>0.80578E+02</wgt>
<wgt id='4014'>0.79564E+02</wgt>
<wgt id='4015'>0.79669E+02</wgt>
<wgt id='4016'>0.80332E+02</wgt>
<wgt id='4017'>0.79950E+02</wgt>
<wgt id='4018'>0.80163E+02</wgt>
<wgt id='4019'>0.80571E+02</wgt>
<wgt id='4020'>0.79217E+02</wgt>
<wgt id='4021'>0.80110E+02</wgt>
<wgt id='4022'>0.79881E+02</wgt>
<wgt id='4023'>0.79873E+02</wgt>
<wgt id='4024'>0.80248E+02</wgt>
<wgt id='4025'>0.80270E+02</wgt>
<wgt id='4026'>0.79469E+02</wgt>
<wgt id='4027'>0.79954E+02</wgt>
<wgt id='4028'>0.80137E+02</wgt>
<wgt id='4029'>0.79385E+02</wgt>
<wgt id='4030'>0.79998E+02</wgt>
<wgt id='4031'>0.79866E+02</wgt>
<wgt id='4032'>0.80026E+02</wgt>
<wgt id='4033'>0.80033E+02</wgt>
<wgt id='4034'>0.79804E+02</wgt>
<wgt id='4035'>0.81054E+02</wgt>
<wgt id='4036'>0.79239E+02</wgt>
<wgt id='4037'>0.81319E+02</wgt>
<wgt id='4038'>0.79001E+02</wgt>
<wgt id='4039'>0.81363E+02</wgt>
<wgt id='4040'>0.78662E+02</wgt>
<wgt id='4041'>0.79968E+02</wgt>
<wgt id='4042'>0.79995E+02</wgt>
<wgt id='4043'>0.79097E+02</wgt>
<wgt id='4044'>0.80247E+02</wgt>
<wgt id='4045'>0.81605E+02</wgt>
<wgt id='4046'>0.79293E+02</wgt>
<wgt id='4047'>0.79085E+02</wgt>
<wgt id='4048'>0.80435E+02</wgt>
<wgt id='4049'>0.79929E+02</wgt>
<wgt id='4050'>0.80095E+02</wgt>
<wgt id='4051'>0.81109E+02</wgt>
<wgt id='4052'>0.79048E+02</wgt>
<wgt id='4053'>0.80732E+02</wgt>
<wgt id='4054'>0.78977E+02</wgt>
<wgt id='4055'>0.80438E+02</wgt>
<wgt id='4056'>0.79579E+02</wgt>
<wgt id='4057'>0.79246E+02</wgt>
<wgt id='4058'>0.80560E+02</wgt>
<wgt id='4100'>0.80678E+02</wgt>
<wgt id='4101'>0.80374E+02</wgt>
<wgt id='4102'>0.79667E+02</wgt>
<wgt id='4103'>0.79273E+02</wgt>
<wgt id='4200'>0.76948E+02</wgt>
<wgt id='4201'>0.77057E+02</wgt>
<wgt id='4202'>0.77067E+02</wgt>
<wgt id='4203'>0.76326E+02</wgt>
<wgt id='4204'>0.77440E+02</wgt>
<wgt id='4205'>0.76889E+02</wgt>
<wgt id='4206'>0.77131E+02</wgt>
<wgt id='4207'>0.76836E+02</wgt>
<wgt id='4208'>0.77064E+02</wgt>
<wgt id='4209'>0.77099E+02</wgt>
<wgt id='4210'>0.76955E+02</wgt>
<wgt id='4211'>0.77936E+02</wgt>
<wgt id='4212'>0.76169E+02</wgt>
<wgt id='4213'>0.77122E+02</wgt>
<wgt id='4214'>0.76674E+02</wgt>
<wgt id='4215'>0.77046E+02</wgt>
<wgt id='4216'>0.76608E+02</wgt>
<wgt id='4217'>0.76595E+02</wgt>
<wgt id='4218'>0.77207E+02</wgt>
<wgt id='4219'>0.75883E+02</wgt>
<wgt id='4220'>0.77926E+02</wgt>
<wgt id='4221'>0.76346E+02</wgt>
<wgt id='4222'>0.77649E+02</wgt>
<wgt id='4223'>0.77402E+02</wgt>
<wgt id='4224'>0.76253E+02</wgt>
<wgt id='4225'>0.75538E+02</wgt>
<wgt id='4226'>0.78276E+02</wgt>
<wgt id='4227'>0.77504E+02</wgt>
<wgt id='4228'>0.76476E+02</wgt>
<wgt id='4229'>0.76250E+02</wgt>
<wgt id='4230'>0.77421E+02</wgt>
<wgt id='4231'>0.76958E+02</wgt>
<wgt id='4232'>0.76868E+02</wgt>
<wgt id='4233'>0.77203E+02</wgt>
<wgt id='4234'>0.76488E+02</wgt>
<wgt id='4235'>0.77362E+02</wgt>
<wgt id='4236'>0.76597E+02</wgt>
<wgt id='4237'>0.77096E+02</wgt>
<wgt id='4238'>0.76558E+02</wgt>
<wgt id='4239'>0.77527E+02</wgt>
<wgt id='4240'>0.75645E+02</wgt>
<wgt id='4241'>0.76588E+02</wgt>
<wgt id='4242'>0.77329E+02</wgt>
<wgt id='4243'>0.76917E+02</wgt>
<wgt id='4244'>0.77182E+02</wgt>
<wgt id='4245'>0.76166E+02</wgt>
<wgt id='4246'>0.77670E+02</wgt>
<wgt id='4247'>0.76649E+02</wgt>
<wgt id='4248'>0.77080E+02</wgt>
<wgt id='4249'>0.78110E+02</wgt>
<wgt id='4250'>0.75584E+02</wgt>
<wgt id='4251'>0.76234E+02</wgt>
<wgt id='4252'>0.77318E+02</wgt>
<wgt id='4253'>0.76608E+02</wgt>
<wgt id='4254'>0.77136E+02</wgt>
<wgt id='4255'>0.77263E+02</wgt>
<wgt id='4256'>0.76674E+02</wgt>
<wgt id='4257'>0.75514E+02</wgt>
<wgt id='4258'>0.77361E+02</wgt>
<wgt id='4300'>0.79249E+02</wgt>
<wgt id='4301'>0.78384E+02</wgt>
<wgt id='5000'>0.79843E+02</wgt>
<wgt id='5001'>0.79881E+02</wgt>
<wgt id='5002'>0.79795E+02</wgt>
<wgt id='5003'>0.79862E+02</wgt>
<wgt id='5004'>0.79826E+02</wgt>
<wgt id='5005'>0.79848E+02</wgt>
<wgt id='5006'>0.79836E+02</wgt>
<wgt id='5007'>0.79903E+02</wgt>
<wgt id='5008'>0.79795E+02</wgt>
<wgt id='5009'>0.79954E+02</wgt>
<wgt id='5010'>0.79729E+02</wgt>
<wgt id='5011'>0.80021E+02</wgt>
<wgt id='5012'>0.79672E+02</wgt>
<wgt id='5013'>0.79965E+02</wgt>
<wgt id='5014'>0.79757E+02</wgt>
<wgt id='5015'>0.79446E+02</wgt>
<wgt id='5016'>0.79446E+02</wgt>
<wgt id='5017'>0.80281E+02</wgt>
<wgt id='5018'>0.79548E+02</wgt>
<wgt id='5019'>0.80145E+02</wgt>
<wgt id='5020'>0.79430E+02</wgt>
<wgt id='5021'>0.79936E+02</wgt>
<wgt id='5022'>0.79699E+02</wgt>
<wgt id='5023'>0.79755E+02</wgt>
<wgt id='5024'>0.80054E+02</wgt>
<wgt id='5025'>0.79554E+02</wgt>
<wgt id='5026'>0.80168E+02</wgt>
<wgt id='5027'>0.79882E+02</wgt>
<wgt id='5028'>0.79740E+02</wgt>
<wgt id='5029'>0.80538E+02</wgt>
<wgt id='5030'>0.79450E+02</wgt>
<wgt id='5031'>0.79492E+02</wgt>
<wgt id='5032'>0.80910E+02</wgt>
<wgt id='5033'>0.79839E+02</wgt>
<wgt id='5034'>0.79849E+02</wgt>
<wgt id='5035'>0.79848E+02</wgt>
<wgt id='5036'>0.79839E+02</wgt>
<wgt id='5037'>0.79718E+02</wgt>
<wgt id='5038'>0.79915E+02</wgt>
<wgt id='5039'>0.80049E+02</wgt>
<wgt id='5040'>0.79336E+02</wgt>
<wgt id='5041'>0.80044E+02</wgt>
<wgt id='5042'>0.79642E+02</wgt>
<wgt id='5043'>0.79967E+02</wgt>
<wgt id='5044'>0.79776E+02</wgt>
<wgt id='5045'>0.79703E+02</wgt>
<wgt id='5046'>0.80081E+02</wgt>
<wgt id='5047'>0.79885E+02</wgt>
<wgt id='5048'>0.79658E+02</wgt>
<wgt id='5049'>0.79808E+02</wgt>
<wgt id='5050'>0.79924E+02</wgt>
<wgt id='5051'>0.79980E+02</wgt>
<wgt id='5052'>0.79725E+02</wgt>
<wgt id='5053'>0.79744E+02</wgt>
<wgt id='5054'>0.79998E+02</wgt>
<wgt id='5055'>0.79901E+02</wgt>
<wgt id='5056'>0.79865E+02</wgt>
<wgt id='5057'>0.79588E+02</wgt>
<wgt id='5058'>0.80022E+02</wgt>
<wgt id='5059'>0.79815E+02</wgt>
<wgt id='5060'>0.79869E+02</wgt>
<wgt id='5061'>0.80091E+02</wgt>
<wgt id='5062'>0.79886E+02</wgt>
<wgt id='5063'>0.80132E+02</wgt>
<wgt id='5064'>0.79796E+02</wgt>
<wgt id='5100'>0.79843E+02</wgt>
<wgt id='5101'>0.79861E+02</wgt>
<wgt id='6000'>0.79802E+02</wgt>
<wgt id='6001'>0.79868E+02</wgt>
<wgt id='6002'>0.79827E+02</wgt>
<wgt id='6003'>0.79727E+02</wgt>
<wgt id='6004'>0.79803E+02</wgt>
<wgt id='6005'>0.79623E+02</wgt>
<wgt id='6006'>0.80028E+02</wgt>
<wgt id='6007'>0.79637E+02</wgt>
<wgt id='6008'>0.79266E+02</wgt>
<wgt id='6009'>0.80003E+02</wgt>
<wgt id='6010'>0.78708E+02</wgt>
<wgt id='6011'>0.79774E+02</wgt>
<wgt id='6012'>0.80050E+02</wgt>
<wgt id='6013'>0.79557E+02</wgt>
<wgt id='6014'>0.79687E+02</wgt>
<wgt id='6015'>0.79271E+02</wgt>
<wgt id='6016'>0.79905E+02</wgt>
<wgt id='6017'>0.79752E+02</wgt>
<wgt id='6018'>0.79599E+02</wgt>
<wgt id='6019'>0.79833E+02</wgt>
<wgt id='6020'>0.79949E+02</wgt>
<wgt id='6021'>0.79831E+02</wgt>
<wgt id='6022'>0.79855E+02</wgt>
<wgt id='6023'>0.79815E+02</wgt>
<wgt id='6024'>0.79873E+02</wgt>
<wgt id='6025'>0.80047E+02</wgt>
<wgt id='6026'>0.79807E+02</wgt>
<wgt id='6027'>0.79812E+02</wgt>
<wgt id='6028'>0.79646E+02</wgt>
<wgt id='6029'>0.79676E+02</wgt>
<wgt id='6030'>0.80130E+02</wgt>
<wgt id='6031'>0.79633E+02</wgt>
<wgt id='6032'>0.79832E+02</wgt>
<wgt id='6033'>0.79687E+02</wgt>
<wgt id='6034'>0.80022E+02</wgt>
<wgt id='6035'>0.79850E+02</wgt>
<wgt id='6036'>0.80262E+02</wgt>
<wgt id='6037'>0.79810E+02</wgt>
<wgt id='6038'>0.79852E+02</wgt>
<wgt id='6039'>0.79928E+02</wgt>
<wgt id='6040'>0.79788E+02</wgt>
<wgt id='6041'>0.78514E+02</wgt>
<wgt id='6042'>0.80613E+02</wgt>
<wgt id='7000'>0.79405E+02</wgt>
<wgt id='7001'>0.78855E+02</wgt>
<wgt id='7002'>0.79023E+02</wgt>
<wgt id='7003'>0.78919E+02</wgt>
<wgt id='7004'>0.78959E+02</wgt>
<wgt id='7005'>0.79046E+02</wgt>
<wgt id='7006'>0.78833E+02</wgt>
<wgt id='7007'>0.79432E+02</wgt>
<wgt id='7008'>0.78460E+02</wgt>
<wgt id='7009'>0.78621E+02</wgt>
<wgt id='7010'>0.79269E+02</wgt>
<wgt id='7011'>0.79209E+02</wgt>
<wgt id='7012'>0.78673E+02</wgt>
<wgt id='7013'>0.78809E+02</wgt>
<wgt id='7014'>0.79062E+02</wgt>
<wgt id='7015'>0.78859E+02</wgt>
<wgt id='7016'>0.78799E+02</wgt>
<wgt id='7017'>0.78955E+02</wgt>
<wgt id='7018'>0.78926E+02</wgt>
<wgt id='7019'>0.78816E+02</wgt>
<wgt id='7020'>0.79072E+02</wgt>
<wgt id='7021'>0.79062E+02</wgt>
<wgt id='7022'>0.78799E+02</wgt>
<wgt id='7023'>0.78599E+02</wgt>
<wgt id='7024'>0.79291E+02</wgt>
<wgt id='7025'>0.78016E+02</wgt>
<wgt id='7026'>0.79789E+02</wgt>
<wgt id='7027'>0.78576E+02</wgt>
<wgt id='7028'>0.79356E+02</wgt>
<wgt id='8000'>0.79575E+02</wgt>
<wgt id='8001'>0.79564E+02</wgt>
<wgt id='8002'>0.79599E+02</wgt>
<wgt id='8003'>0.79577E+02</wgt>
<wgt id='8004'>0.79573E+02</wgt>
<wgt id='8005'>0.79427E+02</wgt>
<wgt id='8006'>0.79652E+02</wgt>
<wgt id='8007'>0.79724E+02</wgt>
<wgt id='8008'>0.79753E+02</wgt>
<wgt id='8009'>0.79909E+02</wgt>
<wgt id='8010'>0.79489E+02</wgt>
<wgt id='8011'>0.79587E+02</wgt>
<wgt id='8012'>0.79284E+02</wgt>
<wgt id='8013'>0.79420E+02</wgt>
<wgt id='8014'>0.79755E+02</wgt>
<wgt id='8015'>0.79529E+02</wgt>
<wgt id='8016'>0.79648E+02</wgt>
<wgt id='8017'>0.79616E+02</wgt>
<wgt id='8018'>0.79764E+02</wgt>
<wgt id='8019'>0.79638E+02</wgt>
<wgt id='8020'>0.79514E+02</wgt>
<wgt id='8021'>0.79512E+02</wgt>
<wgt id='8022'>0.79457E+02</wgt>
<wgt id='8023'>0.79505E+02</wgt>
<wgt id='8024'>0.79361E+02</wgt>
<wgt id='8025'>0.79561E+02</wgt>
<wgt id='8026'>0.79686E+02</wgt>
<wgt id='8027'>0.79613E+02</wgt>
<wgt id='8028'>0.79632E+02</wgt>
<wgt id='8029'>0.79460E+02</wgt>
<wgt id='3000'>0.81104E+02</wgt>
<wgt id='3001'>0.80949E+02</wgt>
<wgt id='3002'>0.79943E+02</wgt>
<wgt id='3003'>0.80847E+02</wgt>
<wgt id='3004'>0.81977E+02</wgt>
<wgt id='3005'>0.81149E+02</wgt>
<wgt id='3006'>0.83538E+02</wgt>
<wgt id='3007'>0.80639E+02</wgt>
<wgt id='3008'>0.80336E+02</wgt>
<wgt id='3009'>0.81581E+02</wgt>
<wgt id='3010'>0.82831E+02</wgt>
<wgt id='3011'>0.81798E+02</wgt>
<wgt id='3012'>0.81613E+02</wgt>
<wgt id='3013'>0.80395E+02</wgt>
<wgt id='3014'>0.80618E+02</wgt>
<wgt id='3015'>0.80963E+02</wgt>
<wgt id='3016'>0.81952E+02</wgt>
<wgt id='3017'>0.82735E+02</wgt>
<wgt id='3018'>0.80936E+02</wgt>
<wgt id='3019'>0.79559E+02</wgt>
<wgt id='3020'>0.80532E+02</wgt>
<wgt id='3021'>0.79565E+02</wgt>
<wgt id='3022'>0.79218E+02</wgt>
<wgt id='3023'>0.79645E+02</wgt>
<wgt id='3024'>0.80282E+02</wgt>
<wgt id='3025'>0.79950E+02</wgt>
<wgt id='3026'>0.80557E+02</wgt>
<wgt id='3027'>0.79739E+02</wgt>
<wgt id='3028'>0.80350E+02</wgt>
<wgt id='3029'>0.82359E+02</wgt>
<wgt id='3030'>0.82517E+02</wgt>
<wgt id='3031'>0.81593E+02</wgt>
<wgt id='3032'>0.82400E+02</wgt>
<wgt id='3033'>0.80381E+02</wgt>
<wgt id='3034'>0.81608E+02</wgt>
<wgt id='3035'>0.81721E+02</wgt>
<wgt id='3036'>0.81043E+02</wgt>
<wgt id='3037'>0.80314E+02</wgt>
<wgt id='3038'>0.80752E+02</wgt>
<wgt id='3039'>0.81305E+02</wgt>
<wgt id='3040'>0.81197E+02</wgt>
<wgt id='3041'>0.81564E+02</wgt>
<wgt id='3042'>0.81137E+02</wgt>
<wgt id='3043'>0.81388E+02</wgt>
<wgt id='3044'>0.81222E+02</wgt>
<wgt id='3045'>0.81394E+02</wgt>
<wgt id='3046'>0.81745E+02</wgt>
<wgt id='3047'>0.79311E+02</wgt>
<wgt id='3048'>0.80031E+02</wgt>
<wgt id='3049'>0.81048E+02</wgt>
<wgt id='3050'>0.81902E+02</wgt>
<wgt id='3051'>0.81192E+02</wgt>
<wgt id='3052'>0.80141E+02</wgt>
<wgt id='3053'>0.80829E+02</wgt>
<wgt id='3054'>0.80798E+02</wgt>
<wgt id='3055'>0.80064E+02</wgt>
<wgt id='3056'>0.80892E+02</wgt>
<wgt id='3057'>0.80410E+02</wgt>
<wgt id='3058'>0.80058E+02</wgt>
<wgt id='3059'>0.82455E+02</wgt>
<wgt id='3060'>0.81200E+02</wgt>
<wgt id='3061'>0.80813E+02</wgt>
<wgt id='3062'>0.80836E+02</wgt>
<wgt id='3063'>0.79566E+02</wgt>
<wgt id='3064'>0.81128E+02</wgt>
<wgt id='3065'>0.80411E+02</wgt>
<wgt id='3066'>0.81731E+02</wgt>
<wgt id='3067'>0.79696E+02</wgt>
<wgt id='3068'>0.81618E+02</wgt>
<wgt id='3069'>0.81022E+02</wgt>
<wgt id='3070'>0.80207E+02</wgt>
<wgt id='3071'>0.81980E+02</wgt>
<wgt id='3072'>0.80348E+02</wgt>
<wgt id='3073'>0.82016E+02</wgt>
<wgt id='3074'>0.81697E+02</wgt>
<wgt id='3075'>0.82425E+02</wgt>
<wgt id='3076'>0.82684E+02</wgt>
<wgt id='3077'>0.80632E+02</wgt>
<wgt id='3078'>0.81095E+02</wgt>
<wgt id='3079'>0.81000E+02</wgt>
<wgt id='3080'>0.81656E+02</wgt>
<wgt id='3081'>0.80008E+02</wgt>
<wgt id='3082'>0.81952E+02</wgt>
<wgt id='3083'>0.81429E+02</wgt>
<wgt id='3084'>0.81070E+02</wgt>
<wgt id='3085'>0.80829E+02</wgt>
<wgt id='3086'>0.80316E+02</wgt>
<wgt id='3087'>0.81569E+02</wgt>
<wgt id='3088'>0.82665E+02</wgt>
<wgt id='3089'>0.84086E+02</wgt>
<wgt id='3090'>0.81642E+02</wgt>
<wgt id='3091'>0.80720E+02</wgt>
<wgt id='3092'>0.82414E+02</wgt>
<wgt id='3093'>0.81732E+02</wgt>
<wgt id='3094'>0.81301E+02</wgt>
<wgt id='3095'>0.81407E+02</wgt>
<wgt id='3096'>0.80297E+02</wgt>
<wgt id='3097'>0.80996E+02</wgt>
<wgt id='3098'>0.82092E+02</wgt>
<wgt id='3099'>0.80303E+02</wgt>
<wgt id='3100'>0.80691E+02</wgt>
<wgt id='3200'>0.78652E+02</wgt>
<wgt id='3201'>0.79156E+02</wgt>
<wgt id='3202'>0.77577E+02</wgt>
<wgt id='3203'>0.78771E+02</wgt>
<wgt id='3204'>0.77954E+02</wgt>
<wgt id='3205'>0.79205E+02</wgt>
<wgt id='3206'>0.79235E+02</wgt>
<wgt id='3207'>0.79478E+02</wgt>
<wgt id='3208'>0.79186E+02</wgt>
<wgt id='3209'>0.78455E+02</wgt>
<wgt id='3210'>0.78617E+02</wgt>
<wgt id='3211'>0.79360E+02</wgt>
<wgt id='3212'>0.77899E+02</wgt>
<wgt id='3213'>0.78444E+02</wgt>
<wgt id='3214'>0.78092E+02</wgt>
<wgt id='3215'>0.78713E+02</wgt>
<wgt id='3216'>0.79407E+02</wgt>
<wgt id='3217'>0.79007E+02</wgt>
<wgt id='3218'>0.78818E+02</wgt>
<wgt id='3219'>0.78582E+02</wgt>
<wgt id='3220'>0.78089E+02</wgt>
<wgt id='3221'>0.79299E+02</wgt>
<wgt id='3222'>0.79699E+02</wgt>
<wgt id='3223'>0.78670E+02</wgt>
<wgt id='3224'>0.78444E+02</wgt>
<wgt id='3225'>0.79334E+02</wgt>
<wgt id='3226'>0.78716E+02</wgt>
<wgt id='3227'>0.78007E+02</wgt>
<wgt id='3228'>0.77965E+02</wgt>
<wgt id='3229'>0.79128E+02</wgt>
<wgt id='3230'>0.79173E+02</wgt>
<wgt id='3231'>0.78861E+02</wgt>
<wgt id='3232'>0.79016E+02</wgt>
<wgt id='3233'>0.79169E+02</wgt>
<wgt id='3234'>0.78500E+02</wgt>
<wgt id='3235'>0.78218E+02</wgt>
<wgt id='3236'>0.77873E+02</wgt>
<wgt id='3237'>0.78459E+02</wgt>
<wgt id='3238'>0.78320E+02</wgt>
<wgt id='3239'>0.78311E+02</wgt>
<wgt id='3240'>0.78331E+02</wgt>
<wgt id='3241'>0.79396E+02</wgt>
<wgt id='3242'>0.78057E+02</wgt>
<wgt id='3243'>0.77849E+02</wgt>
<wgt id='3244'>0.78387E+02</wgt>
<wgt id='3245'>0.79008E+02</wgt>
<wgt id='3246'>0.77824E+02</wgt>
<wgt id='3247'>0.78669E+02</wgt>
<wgt id='3248'>0.78303E+02</wgt>
<wgt id='3249'>0.78147E+02</wgt>
<wgt id='3250'>0.79038E+02</wgt>
<wgt id='3251'>0.78531E+02</wgt>
<wgt id='3252'>0.78863E+02</wgt>
<wgt id='3253'>0.78506E+02</wgt>
<wgt id='3254'>0.78462E+02</wgt>
<wgt id='3255'>0.78496E+02</wgt>
<wgt id='3256'>0.78329E+02</wgt>
<wgt id='3257'>0.78499E+02</wgt>
<wgt id='3258'>0.78888E+02</wgt>
<wgt id='3259'>0.78665E+02</wgt>
<wgt id='3260'>0.78745E+02</wgt>
<wgt id='3261'>0.79066E+02</wgt>
<wgt id='3262'>0.78402E+02</wgt>
<wgt id='3263'>0.79339E+02</wgt>
<wgt id='3264'>0.78781E+02</wgt>
<wgt id='3265'>0.78863E+02</wgt>
<wgt id='3266'>0.78459E+02</wgt>
<wgt id='3267'>0.78453E+02</wgt>
<wgt id='3268'>0.79159E+02</wgt>
<wgt id='3269'>0.78814E+02</wgt>
<wgt id='3270'>0.78960E+02</wgt>
<wgt id='3271'>0.78872E+02</wgt>
<wgt id='3272'>0.79100E+02</wgt>
<wgt id='3273'>0.78565E+02</wgt>
<wgt id='3274'>0.78706E+02</wgt>
<wgt id='3275'>0.78919E+02</wgt>
<wgt id='3276'>0.78232E+02</wgt>
<wgt id='3277'>0.78151E+02</wgt>
<wgt id='3278'>0.78590E+02</wgt>
<wgt id='3279'>0.79266E+02</wgt>
<wgt id='3280'>0.78447E+02</wgt>
<wgt id='3281'>0.78889E+02</wgt>
<wgt id='3282'>0.78935E+02</wgt>
<wgt id='3283'>0.78889E+02</wgt>
<wgt id='3284'>0.78742E+02</wgt>
<wgt id='3285'>0.78058E+02</wgt>
<wgt id='3286'>0.78303E+02</wgt>
<wgt id='3287'>0.78399E+02</wgt>
<wgt id='3288'>0.78972E+02</wgt>
<wgt id='3289'>0.79777E+02</wgt>
<wgt id='3290'>0.79460E+02</wgt>
<wgt id='3291'>0.77312E+02</wgt>
<wgt id='3292'>0.77858E+02</wgt>
<wgt id='3293'>0.78475E+02</wgt>
<wgt id='3294'>0.77440E+02</wgt>
<wgt id='3295'>0.78174E+02</wgt>
<wgt id='3296'>0.79794E+02</wgt>
<wgt id='3297'>0.78423E+02</wgt>
<wgt id='3298'>0.78491E+02</wgt>
<wgt id='3299'>0.78339E+02</wgt>
<wgt id='3300'>0.79170E+02</wgt>
<wgt id='3301'>0.77175E+02</wgt>
<wgt id='3302'>0.79984E+02</wgt>
<wgt id='3400'>0.78673E+02</wgt>
<wgt id='3401'>0.78701E+02</wgt>
<wgt id='3402'>0.78014E+02</wgt>
<wgt id='3403'>0.79492E+02</wgt>
<wgt id='3404'>0.79899E+02</wgt>
<wgt id='3405'>0.79396E+02</wgt>
<wgt id='3406'>0.78910E+02</wgt>
<wgt id='3407'>0.78205E+02</wgt>
<wgt id='3408'>0.80039E+02</wgt>
<wgt id='3409'>0.79734E+02</wgt>
<wgt id='3410'>0.78895E+02</wgt>
<wgt id='3411'>0.79317E+02</wgt>
<wgt id='3412'>0.79369E+02</wgt>
<wgt id='3413'>0.78574E+02</wgt>
<wgt id='3414'>0.78370E+02</wgt>
<wgt id='3415'>0.78599E+02</wgt>
<wgt id='3416'>0.78192E+02</wgt>
<wgt id='3417'>0.78735E+02</wgt>
<wgt id='3418'>0.78094E+02</wgt>
<wgt id='3419'>0.78137E+02</wgt>
<wgt id='3420'>0.78874E+02</wgt>
<wgt id='3421'>0.78910E+02</wgt>
<wgt id='3422'>0.79123E+02</wgt>
<wgt id='3423'>0.79278E+02</wgt>
<wgt id='3424'>0.79089E+02</wgt>
<wgt id='3425'>0.78560E+02</wgt>
<wgt id='3426'>0.78783E+02</wgt>
<wgt id='3427'>0.78634E+02</wgt>
<wgt id='3428'>0.79460E+02</wgt>
<wgt id='3429'>0.78040E+02</wgt>
<wgt id='3430'>0.78974E+02</wgt>
<wgt id='3431'>0.78690E+02</wgt>
<wgt id='3432'>0.78626E+02</wgt>
<wgt id='3433'>0.77528E+02</wgt>
<wgt id='3434'>0.78836E+02</wgt>
<wgt id='3435'>0.78984E+02</wgt>
<wgt id='3436'>0.78639E+02</wgt>
<wgt id='3437'>0.78689E+02</wgt>
<wgt id='3438'>0.77933E+02</wgt>
<wgt id='3439'>0.78956E+02</wgt>
<wgt id='3440'>0.78802E+02</wgt>
<wgt id='3441'>0.78603E+02</wgt>
<wgt id='3442'>0.77326E+02</wgt>
<wgt id='3443'>0.78603E+02</wgt>
<wgt id='3444'>0.78457E+02</wgt>
<wgt id='3445'>0.78326E+02</wgt>
<wgt id='3446'>0.79219E+02</wgt>
<wgt id='3447'>0.79727E+02</wgt>
<wgt id='3448'>0.79388E+02</wgt>
<wgt id='3449'>0.79410E+02</wgt>
<wgt id='3450'>0.78669E+02</wgt>
<wgt id='3451'>0.79531E+02</wgt>
<wgt id='3452'>0.78367E+02</wgt>
<wgt id='3453'>0.77878E+02</wgt>
<wgt id='3454'>0.77972E+02</wgt>
<wgt id='3455'>0.79565E+02</wgt>
<wgt id='3456'>0.78934E+02</wgt>
<wgt id='3457'>0.79670E+02</wgt>
<wgt id='3458'>0.78802E+02</wgt>
<wgt id='3459'>0.78520E+02</wgt>
<wgt id='3460'>0.78479E+02</wgt>
<wgt id='3461'>0.78024E+02</wgt>
<wgt id='3462'>0.78384E+02</wgt>
<wgt id='3463'>0.77854E+02</wgt>
<wgt id='3464'>0.79102E+02</wgt>
<wgt id='3465'>0.78712E+02</wgt>
<wgt id='3466'>0.79036E+02</wgt>
<wgt id='3467'>0.78374E+02</wgt>
<wgt id='3468'>0.77974E+02</wgt>
<wgt id='3469'>0.78672E+02</wgt>
<wgt id='3470'>0.78566E+02</wgt>
<wgt id='3471'>0.78512E+02</wgt>
<wgt id='3472'>0.77990E+02</wgt>
<wgt id='3473'>0.79136E+02</wgt>
<wgt id='3474'>0.78548E+02</wgt>
<wgt id='3475'>0.78669E+02</wgt>
<wgt id='3476'>0.78715E+02</wgt>
<wgt id='3477'>0.78048E+02</wgt>
<wgt id='3478'>0.79290E+02</wgt>
<wgt id='3479'>0.79258E+02</wgt>
<wgt id='3480'>0.78237E+02</wgt>
<wgt id='3481'>0.78838E+02</wgt>
<wgt id='3482'>0.78569E+02</wgt>
<wgt id='3483'>0.77602E+02</wgt>
<wgt id='3484'>0.78488E+02</wgt>
<wgt id='3485'>0.78352E+02</wgt>
<wgt id='3486'>0.77337E+02</wgt>
<wgt id='3487'>0.78969E+02</wgt>
<wgt id='3488'>0.79250E+02</wgt>
<wgt id='3489'>0.77890E+02</wgt>
<wgt id='3490'>0.79210E+02</wgt>
<wgt id='3491'>0.78748E+02</wgt>
<wgt id='3492'>0.78914E+02</wgt>
<wgt id='3493'>0.78274E+02</wgt>
<wgt id='3494'>0.76765E+02</wgt>
<wgt id='3495'>0.78820E+02</wgt>
<wgt id='3496'>0.77710E+02</wgt>
<wgt id='3497'>0.78178E+02</wgt>
<wgt id='3498'>0.78950E+02</wgt>
<wgt id='3499'>0.78596E+02</wgt>
<wgt id='3500'>0.79259E+02</wgt>
</rwgt>
</event>
<event>
     13 322200  8.11039E+01  1.07681E+02 -1.00000E+00  1.20850E-01
      21    -1     0     0   503   504  0.000000000E+00  0.000000000E+00  5.357359452E+02  5.357359452E+02  0.000000000E+00  0.00000E+00  9.000E+00
      21    -1     0     0   502   503  0.000000000E+00  0.000000000E+00 -1.843135969E+02  1.843135969E+02  0.000000000E+00  0.00000E+00  9.000E+00
       6     2     1     2   502     0  1.063685328E+02  7.233578214E+01 -1.764374591E+01  2.156029371E+02  1.721237769E+02  0.00000E+00  9.000E+00
      -6     2     1     2     0   505 -3.846114329E+01 -1.559047549E+02  2.524719652E+02  3.457349869E+02  1.732196172E+02  0.00000E+00  9.000E+00
      21     1     1     2   505   504 -6.790738955E+01  8.356897281E+01  1.165941291E+02  1.587116181E+02  3.568322551E-06  0.00000E+00  9.000E+00
      24     2     3     3     0     0  2.164364835E+01  8.401720912E+01  1.325071508E+01  1.245269628E+02  8.834050068E+01  0.00000E+00  9.000E+00
       5     1     3     3   502     0  8.472488449E+01 -1.168142699E+01 -3.089446099E+01  9.107597437E+01  5.060000000E+00  0.00000E+00 -1.000E+00
     -24     2     4     4     0     0  1.570191491E+01 -8.299264327E+00  2.775140283E+01  7.142502994E+01  6.337165473E+01  0.00000E+00  9.000E+00
      -5     1     4     4     0   505 -5.416305820E+01 -1.476054906E+02  2.247205623E+02  2.743099569E+02  5.060000000E+00  0.00000E+00  1.000E+00
     -13     1     6     6     0     0  5.215531756E+01  7.296925094E+01  5.896419226E-01  8.969418923E+01  1.057000000E-01  0.00000E+00  1.000E+00
      14     1     6     6     0     0 -3.051166921E+01  1.104795818E+01  1.266107315E+01  3.483277352E+01  0.000000000E+00  0.00000E+00 -1.000E+00
      11     1     8     8     0     0  4.541593248E+00 -3.366007154E+01  2.701449410E+00  3.407233943E+01  5.100000000E-04  0.00000E+00 -1.000E+00
     -12     1     8     8     0     0  1.116032166E+01  2.536080721E+01  2.504995342E+01  3.735269051E+01  0.000000000E+00  0.00000E+00  1.000E+00
#rwgt            2           1   61.315821853496466               10       26736           0
<rwgt>
<wgt id='1001'>0.81104E+02</wgt>
<wgt id='1002'>0.75052E+02</wgt>
<wgt id='1003'>0.87756E+02</wgt>
<wgt id='1004'>0.62512E+02</wgt>
<wgt id='1005'>0.57848E+02</wgt>
<wgt id='1006'>0.67639E+02</wgt>
<wgt id='1007'>0.10800E+03</wgt>
<wgt id='1008'>0.99942E+02</wgt>
<wgt id='1009'>0.11686E+03</wgt>
<wgt id='2000'>0.81104E+02</wgt>
<wgt id='2001'>0.81051E+02</wgt>
<wgt id='2002'>0.80932E+02</wgt>
<wgt id='2003'>0.81142E+02</wgt>
<wgt id='2004'>0.81241E+02</wgt>
<wgt id='2005'>0.81061E+02</wgt>
<wgt id='2006'>0.81254E+02</wgt>
<wgt id='2007'>0.81103E+02</wgt>
<wgt id='2008'>0.81242E+02</wgt>
<wgt id='2009'>0.81032E+02</wgt>
<wgt id='2010'>0.81045E+02</wgt>
<wgt id='2011'>0.81054E+02</wgt>
<wgt id='2012'>0.81165E+02</wgt>
<wgt id='2013'>0.81272E+02</wgt>
<wgt id='2014'>0.81340E+02</wgt>
<wgt id='2015'>0.81267E+02</wgt>
<wgt id='2016'>0.81236E+02</wgt>
<wgt id='2017'>0.81279E+02</wgt>
<wgt id='2018'>0.80973E+02</wgt>
<wgt id='2019'>0.80938E+02</wgt>
<wgt id='2020'>0.81085E+02</wgt>
<wgt id='2021'>0.80954E+02</wgt>
<wgt id='2022'>0.81108E+02</wgt>
<wgt id='2023'>0.81292E+02</wgt>
<wgt id='2024'>0.80931E+02</wgt>
<wgt id='2025'>0.81023E+02</wgt>
<wgt id='2026'>0.80959E+02</wgt>
<wgt id='2027'>0.80879E+02</wgt>
<wgt id='2028'>0.81199E+02</wgt>
<wgt id='2029'>0.80761E+02</wgt>
<wgt id='2030'>0.81171E+02</wgt>
<wgt id='2031'>0.80781E+02</wgt>
<wgt id='2032'>0.81175E+02</wgt>
<wgt id='2033'>0.80979E+02</wgt>
<wgt id='2034'>0.80920E+02</wgt>
<wgt id='2035'>0.81103E+02</wgt>
<wgt id='2036'>0.81273E+02</wgt>
<wgt id='2037'>0.81083E+02</wgt>
<wgt id='2038'>0.81021E+02</wgt>
<wgt id='2039'>0.81091E+02</wgt>
<wgt id='2040'>0.81055E+02</wgt>
<wgt id='2041'>0.81068E+02</wgt>
<wgt id='2042'>0.81199E+02</wgt>
<wgt id='2043'>0.81043E+02</wgt>
<wgt id='2044'>0.81189E+02</wgt>
<wgt id='2045'>0.81078E+02</wgt>
<wgt id='2046'>0.81091E+02</wgt>
<wgt id='2047'>0.81100E+02</wgt>
<wgt id='2048'>0.81075E+02</wgt>
<wgt id='2049'>0.81035E+02</wgt>
<wgt id='2050'>0.81069E+02</wgt>
<wgt id='2051'>0.81088E+02</wgt>
<wgt id='2052'>0.81179E+02</wgt>
<wgt id='2053'>0.81089E+02</wgt>
<wgt id='2054'>0.81095E+02</wgt>
<wgt id='2055'>0.81116E+02</wgt>
<wgt id='2056'>0.81042E+02</wgt>
<wgt id='2057'>0.81133E+02</wgt>
<wgt id='2058'>0.81127E+02</wgt>
<wgt id='2059'>0.81095E+02</wgt>
<wgt id='2060'>0.81105E+02</wgt>
<wgt id='2061'>0.81084E+02</wgt>
<wgt id='2062'>0.81171E+02</wgt>
<wgt id='2063'>0.81123E+02</wgt>
<wgt id='2064'>0.81115E+02</wgt>
<wgt id='2065'>0.81181E+02</wgt>
<wgt id='2066'>0.81089E+02</wgt>
<wgt id='2067'>0.81118E+02</wgt>
<wgt id='2068'>0.81128E+02</wgt>
<wgt id='2069'>0.81103E+02</wgt>
<wgt id='2070'>0.81113E+02</wgt>
<wgt id='2071'>0.81097E+02</wgt>
<wgt id='2072'>0.81100E+02</wgt>
<wgt id='2073'>0.81122E+02</wgt>
<wgt id='2074'>0.81082E+02</wgt>
<wgt id='2075'>0.81088E+02</wgt>
<wgt id='2076'>0.81086E+02</wgt>
<wgt id='2077'>0.81152E+02</wgt>
<wgt id='2078'>0.81115E+02</wgt>
<wgt id='2079'>0.81085E+02</wgt>
<wgt id='2080'>0.81115E+02</wgt>
<wgt id='2081'>0.81093E+02</wgt>
<wgt id='2082'>0.81113E+02</wgt>
<wgt id='2083'>0.81140E+02</wgt>
<wgt id='2084'>0.81106E+02</wgt>
<wgt id='2085'>0.81106E+02</wgt>
<wgt id='2086'>0.81090E+02</wgt>
<wgt id='2087'>0.81116E+02</wgt>
<wgt id='2088'>0.81096E+02</wgt>
<wgt id='2089'>0.81089E+02</wgt>
<wgt id='2090'>0.81120E+02</wgt>
<wgt id='2091'>0.81104E+02</wgt>
<wgt id='2092'>0.81127E+02</wgt>
<wgt id='2093'>0.81086E+02</wgt>
<wgt id='2094'>0.81111E+02</wgt>
<wgt id='2095'>0.81123E+02</wgt>
<wgt id='2096'>0.81092E+02</wgt>
<wgt id='2097'>0.81117E+02</wgt>
<wgt id='2098'>0.81099E+02</wgt>
<wgt id='2099'>0.81116E+02</wgt>
<wgt id='2100'>0.81104E+02</wgt>
<wgt id='2101'>0.78304E+02</wgt>
<wgt id='2102'>0.84219E+02</wgt>
<wgt id='2200'>0.81225E+02</wgt>
<wgt id='2201'>0.67538E+02</wgt>
<wgt id='2202'>0.70276E+02</wgt>
<wgt id='2203'>0.72976E+02</wgt>
<wgt id='2204'>0.75499E+02</wgt>
<wgt id='2205'>0.79836E+02</wgt>
<wgt id='2206'>0.82759E+02</wgt>
<wgt id='2207'>0.86900E+02</wgt>
<wgt id='2208'>0.89839E+02</wgt>
<wgt id='2300'>0.85372E+02</wgt>
<wgt id='2301'>0.85442E+02</wgt>
<wgt id='2302'>0.85327E+02</wgt>
<wgt id='2303'>0.85328E+02</wgt>
<wgt id='2304'>0.85598E+02</wgt>
<wgt id='2305'>0.85396E+02</wgt>
<wgt id='2306'>0.85302E+02</wgt>
<wgt id='2307'>0.85482E+02</wgt>
<wgt id='2308'>0.85367E+02</wgt>
<wgt id='2309'>0.85578E+02</wgt>
<wgt id='2310'>0.85280E+02</wgt>
<wgt id='2311'>0.85204E+02</wgt>
<wgt id='2312'>0.85370E+02</wgt>
<wgt id='2313'>0.85530E+02</wgt>
<wgt id='2314'>0.85364E+02</wgt>
<wgt id='2315'>0.85211E+02</wgt>
<wgt id='2316'>0.85402E+02</wgt>
<wgt id='2317'>0.85328E+02</wgt>
<wgt id='2318'>0.85468E+02</wgt>
<wgt id='2319'>0.85433E+02</wgt>
<wgt id='2320'>0.85383E+02</wgt>
<wgt id='2321'>0.85409E+02</wgt>
<wgt id='2322'>0.85366E+02</wgt>
<wgt id='2323'>0.85337E+02</wgt>
<wgt id='2324'>0.85294E+02</wgt>
<wgt id='2325'>0.85462E+02</wgt>
<wgt id='2326'>0.85333E+02</wgt>
<wgt id='2327'>0.85417E+02</wgt>
<wgt id='2328'>0.85210E+02</wgt>
<wgt id='2329'>0.85122E+02</wgt>
<wgt id='2330'>0.85879E+02</wgt>
<wgt id='2331'>0.85623E+02</wgt>
<wgt id='2332'>0.85361E+02</wgt>
<wgt id='2333'>0.85498E+02</wgt>
<wgt id='2334'>0.85365E+02</wgt>
<wgt id='2335'>0.85693E+02</wgt>
<wgt id='2336'>0.85490E+02</wgt>
<wgt id='2337'>0.85344E+02</wgt>
<wgt id='2338'>0.85395E+02</wgt>
<wgt id='2339'>0.85512E+02</wgt>
<wgt id='2340'>0.85269E+02</wgt>
<wgt id='2341'>0.85383E+02</wgt>
<wgt id='2342'>0.85240E+02</wgt>
<wgt id='2343'>0.85190E+02</wgt>
<wgt id='2344'>0.85480E+02</wgt>
<wgt id='2345'>0.85474E+02</wgt>
<wgt id='2346'>0.85496E+02</wgt>
<wgt id='2347'>0.85360E+02</wgt>
<wgt id='2348'>0.85397E+02</wgt>
<wgt id='2349'>0.85323E+02</wgt>
<wgt id='2350'>0.85269E+02</wgt>
<wgt id='2351'>0.85545E+02</wgt>
<wgt id='2352'>0.85324E+02</wgt>
<wgt id='2353'>0.85360E+02</wgt>
<wgt id='2354'>0.85388E+02</wgt>
<wgt id='2355'>0.85341E+02</wgt>
<wgt id='2356'>0.85401E+02</wgt>
<wgt id='2357'>0.85381E+02</wgt>
<wgt id='2358'>0.85308E+02</wgt>
<wgt id='2359'>0.85396E+02</wgt>
<wgt id='2360'>0.85414E+02</wgt>
<wgt id='2361'>0.85445E+02</wgt>
<wgt id='2362'>0.85399E+02</wgt>
<wgt id='2363'>0.85389E+02</wgt>
<wgt id='2364'>0.85353E+02</wgt>
<wgt id='2365'>0.85366E+02</wgt>
<wgt id='2366'>0.85402E+02</wgt>
<wgt id='2367'>0.85302E+02</wgt>
<wgt id='2368'>0.85392E+02</wgt>
<wgt id='2369'>0.85322E+02</wgt>
<wgt id='2370'>0.85338E+02</wgt>
<wgt id='2371'>0.85358E+02</wgt>
<wgt id='2372'>0.85403E+02</wgt>
<wgt id='2373'>0.85357E+02</wgt>
<wgt id='2374'>0.85411E+02</wgt>
<wgt id='2375'>0.85390E+02</wgt>
<wgt id='2376'>0.85376E+02</wgt>
<wgt id='2377'>0.85371E+02</wgt>
<wgt id='2378'>0.85409E+02</wgt>
<wgt id='2379'>0.85353E+02</wgt>
<wgt id='2380'>0.85352E+02</wgt>
<wgt id='2381'>0.85363E+02</wgt>
<wgt id='2382'>0.85357E+02</wgt>
<wgt id='2383'>0.85367E+02</wgt>
<wgt id='2384'>0.85349E+02</wgt>
<wgt id='2385'>0.85387E+02</wgt>
<wgt id='2386'>0.85362E+02</wgt>
<wgt id='2387'>0.85357E+02</wgt>
<wgt id='2388'>0.85358E+02</wgt>
<wgt id='2389'>0.85376E+02</wgt>
<wgt id='2390'>0.85377E+02</wgt>
<wgt id='2391'>0.85372E+02</wgt>
<wgt id='2392'>0.85369E+02</wgt>
<wgt id='2393'>0.85377E+02</wgt>
<wgt id='2394'>0.85389E+02</wgt>
<wgt id='2395'>0.85379E+02</wgt>
<wgt id='2396'>0.85363E+02</wgt>
<wgt id='2397'>0.85354E+02</wgt>
<wgt id='2398'>0.85365E+02</wgt>
<wgt id='2399'>0.85387E+02</wgt>
<wgt id='2400'>0.85381E+02</wgt>
<wgt id='2401'>0.82324E+02</wgt>
<wgt id='2402'>0.88351E+02</wgt>
<wgt id='2500'>0.81955E+02</wgt>
<wgt id='2501'>0.87709E+02</wgt>
<wgt id='2600'>0.78285E+02</wgt>
<wgt id='2601'>0.78273E+02</wgt>
<wgt id='2602'>0.78185E+02</wgt>
<wgt id='2603'>0.78255E+02</wgt>
<wgt id='2604'>0.78258E+02</wgt>
<wgt id='2605'>0.78171E+02</wgt>
<wgt id='2606'>0.78203E+02</wgt>
<wgt id='2607'>0.78330E+02</wgt>
<wgt id='2608'>0.78275E+02</wgt>
<wgt id='2609'>0.78183E+02</wgt>
<wgt id='2610'>0.78230E+02</wgt>
<wgt id='2611'>0.78213E+02</wgt>
<wgt id='2612'>0.78533E+02</wgt>
<wgt id='2613'>0.78251E+02</wgt>
<wgt id='2614'>0.78244E+02</wgt>
<wgt id='2615'>0.78088E+02</wgt>
<wgt id='2616'>0.78265E+02</wgt>
<wgt id='2617'>0.78087E+02</wgt>
<wgt id='2618'>0.78079E+02</wgt>
<wgt id='2619'>0.78351E+02</wgt>
<wgt id='2620'>0.78271E+02</wgt>
<wgt id='2621'>0.78295E+02</wgt>
<wgt id='2622'>0.78496E+02</wgt>
<wgt id='2623'>0.78278E+02</wgt>
<wgt id='2624'>0.78287E+02</wgt>
<wgt id='2625'>0.78222E+02</wgt>
<wgt id='2626'>0.78269E+02</wgt>
<wgt id='2627'>0.78268E+02</wgt>
<wgt id='2628'>0.78303E+02</wgt>
<wgt id='2629'>0.78294E+02</wgt>
<wgt id='2630'>0.78309E+02</wgt>
<wgt id='2631'>0.78218E+02</wgt>
<wgt id='2632'>0.78289E+02</wgt>
<wgt id='2633'>0.78257E+02</wgt>
<wgt id='2634'>0.78243E+02</wgt>
<wgt id='2635'>0.78269E+02</wgt>
<wgt id='2636'>0.78272E+02</wgt>
<wgt id='2637'>0.78292E+02</wgt>
<wgt id='2638'>0.78304E+02</wgt>
<wgt id='2639'>0.78287E+02</wgt>
<wgt id='2640'>0.78279E+02</wgt>
<wgt id='2641'>0.78299E+02</wgt>
<wgt id='2642'>0.78295E+02</wgt>
<wgt id='2643'>0.78282E+02</wgt>
<wgt id='2644'>0.78281E+02</wgt>
<wgt id='2645'>0.78284E+02</wgt>
<wgt id='2646'>0.78299E+02</wgt>
<wgt id='2647'>0.78283E+02</wgt>
<wgt id='2648'>0.78280E+02</wgt>
<wgt id='2649'>0.78286E+02</wgt>
<wgt id='2650'>0.78286E+02</wgt>
<wgt id='2651'>0.76575E+02</wgt>
<wgt id='2652'>0.79876E+02</wgt>
<wgt id='2700'>0.74965E+02</wgt>
<wgt id='2701'>0.76575E+02</wgt>
<wgt id='2702'>0.77479E+02</wgt>
<wgt id='2703'>0.78984E+02</wgt>
<wgt id='2704'>0.79876E+02</wgt>
<wgt id='2705'>0.81427E+02</wgt>
<wgt id='2800'>0.80044E+02</wgt>
<wgt id='4000'>0.80816E+02</wgt>
<wgt id='4001'>0.81193E+02</wgt>
<wgt id='4002'>0.80781E+02</wgt>
<wgt id='4003'>0.80956E+02</wgt>
<wgt id='4004'>0.80761E+02</wgt>
<wgt id='4005'>0.80649E+02</wgt>
<wgt id='4006'>0.81076E+02</wgt>
<wgt id='4007'>0.81701E+02</wgt>
<wgt id='4008'>0.79974E+02</wgt>
<wgt id='4009'>0.81155E+02</wgt>
<wgt id='4010'>0.80433E+02</wgt>
<wgt id='4011'>0.81179E+02</wgt>
<wgt id='4012'>0.80471E+02</wgt>
<wgt id='4013'>0.81460E+02</wgt>
<wgt id='4014'>0.80292E+02</wgt>
<wgt id='4015'>0.80391E+02</wgt>
<wgt id='4016'>0.81544E+02</wgt>
<wgt id='4017'>0.80758E+02</wgt>
<wgt id='4018'>0.80922E+02</wgt>
<wgt id='4019'>0.81319E+02</wgt>
<wgt id='4020'>0.80114E+02</wgt>
<wgt id='4021'>0.80965E+02</wgt>
<wgt id='4022'>0.80541E+02</wgt>
<wgt id='4023'>0.80996E+02</wgt>
<wgt id='4024'>0.80900E+02</wgt>
<wgt id='4025'>0.80997E+02</wgt>
<wgt id='4026'>0.80451E+02</wgt>
<wgt id='4027'>0.80948E+02</wgt>
<wgt id='4028'>0.80797E+02</wgt>
<wgt id='4029'>0.80600E+02</wgt>
<wgt id='4030'>0.80361E+02</wgt>
<wgt id='4031'>0.80479E+02</wgt>
<wgt id='4032'>0.81577E+02</wgt>
<wgt id='4033'>0.81159E+02</wgt>
<wgt id='4034'>0.80208E+02</wgt>
<wgt id='4035'>0.82103E+02</wgt>
<wgt id='4036'>0.79869E+02</wgt>
<wgt id='4037'>0.82563E+02</wgt>
<wgt id='4038'>0.79530E+02</wgt>
<wgt id='4039'>0.82392E+02</wgt>
<wgt id='4040'>0.79256E+02</wgt>
<wgt id='4041'>0.80846E+02</wgt>
<wgt id='4042'>0.80654E+02</wgt>
<wgt id='4043'>0.79937E+02</wgt>
<wgt id='4044'>0.80730E+02</wgt>
<wgt id='4045'>0.82043E+02</wgt>
<wgt id='4046'>0.80272E+02</wgt>
<wgt id='4047'>0.80119E+02</wgt>
<wgt id='4048'>0.81231E+02</wgt>
<wgt id='4049'>0.80837E+02</wgt>
<wgt id='4050'>0.80821E+02</wgt>
<wgt id='4051'>0.81658E+02</wgt>
<wgt id='4052'>0.80127E+02</wgt>
<wgt id='4053'>0.81324E+02</wgt>
<wgt id='4054'>0.79799E+02</wgt>
<wgt id='4055'>0.81292E+02</wgt>
<wgt id='4056'>0.80361E+02</wgt>
<wgt id='4057'>0.79982E+02</wgt>
<wgt id='4058'>0.81344E+02</wgt>
<wgt id='4100'>0.81161E+02</wgt>
<wgt id='4101'>0.80995E+02</wgt>
<wgt id='4102'>0.80619E+02</wgt>
<wgt id='4103'>0.80406E+02</wgt>
<wgt id='4200'>0.77636E+02</wgt>
<wgt id='4201'>0.77724E+02</wgt>
<wgt id='4202'>0.77838E+02</wgt>
<wgt id='4203'>0.76942E+02</wgt>
<wgt id='4204'>0.78155E+02</wgt>
<wgt id='4205'>0.77533E+02</wgt>
<wgt id='4206'>0.77950E+02</wgt>
<wgt id='4207'>0.77696E+02</wgt>
<wgt id='4208'>0.77659E+02</wgt>
<wgt id='4209'>0.77827E+02</wgt>
<wgt id='4210'>0.77650E+02</wgt>
<wgt id='4211'>0.78647E+02</wgt>
<wgt id='4212'>0.76860E+02</wgt>
<wgt id='4213'>0.77865E+02</wgt>
<wgt id='4214'>0.77287E+02</wgt>
<wgt id='4215'>0.77682E+02</wgt>
<wgt id='4216'>0.77473E+02</wgt>
<wgt id='4217'>0.77313E+02</wgt>
<wgt id='4218'>0.77867E+02</wgt>
<wgt id='4219'>0.76545E+02</wgt>
<wgt id='4220'>0.78697E+02</wgt>
<wgt id='4221'>0.77048E+02</wgt>
<wgt id='4222'>0.78435E+02</wgt>
<wgt id='4223'>0.77767E+02</wgt>
<wgt id='4224'>0.76936E+02</wgt>
<wgt id='4225'>0.76353E+02</wgt>
<wgt id='4226'>0.79004E+02</wgt>
<wgt id='4227'>0.78424E+02</wgt>
<wgt id='4228'>0.76983E+02</wgt>
<wgt id='4229'>0.76526E+02</wgt>
<wgt id='4230'>0.78451E+02</wgt>
<wgt id='4231'>0.77801E+02</wgt>
<wgt id='4232'>0.77327E+02</wgt>
<wgt id='4233'>0.77903E+02</wgt>
<wgt id='4234'>0.77018E+02</wgt>
<wgt id='4235'>0.78158E+02</wgt>
<wgt id='4236'>0.77209E+02</wgt>
<wgt id='4237'>0.78013E+02</wgt>
<wgt id='4238'>0.76853E+02</wgt>
<wgt id='4239'>0.77827E+02</wgt>
<wgt id='4240'>0.76601E+02</wgt>
<wgt id='4241'>0.77441E+02</wgt>
<wgt id='4242'>0.77827E+02</wgt>
<wgt id='4243'>0.77588E+02</wgt>
<wgt id='4244'>0.78023E+02</wgt>
<wgt id='4245'>0.77039E+02</wgt>
<wgt id='4246'>0.78074E+02</wgt>
<wgt id='4247'>0.77302E+02</wgt>
<wgt id='4248'>0.77746E+02</wgt>
<wgt id='4249'>0.78963E+02</wgt>
<wgt id='4250'>0.76127E+02</wgt>
<wgt id='4251'>0.77482E+02</wgt>
<wgt id='4252'>0.77666E+02</wgt>
<wgt id='4253'>0.77513E+02</wgt>
<wgt id='4254'>0.77573E+02</wgt>
<wgt id='4255'>0.78283E+02</wgt>
<wgt id='4256'>0.77238E+02</wgt>
<wgt id='4257'>0.76195E+02</wgt>
<wgt id='4258'>0.78045E+02</wgt>
<wgt id='4300'>0.80040E+02</wgt>
<wgt id='4301'>0.79219E+02</wgt>
<wgt id='5000'>0.80485E+02</wgt>
<wgt id='5001'>0.80530E+02</wgt>
<wgt id='5002'>0.80427E+02</wgt>
<wgt id='5003'>0.80503E+02</wgt>
<wgt id='5004'>0.80468E+02</wgt>
<wgt id='5005'>0.80498E+02</wgt>
<wgt id='5006'>0.80463E+02</wgt>
<wgt id='5007'>0.80552E+02</wgt>
<wgt id='5008'>0.80430E+02</wgt>
<wgt id='5009'>0.80606E+02</wgt>
<wgt id='5010'>0.80360E+02</wgt>
<wgt id='5011'>0.80682E+02</wgt>
<wgt id='5012'>0.80294E+02</wgt>
<wgt id='5013'>0.80630E+02</wgt>
<wgt id='5014'>0.80381E+02</wgt>
<wgt id='5015'>0.80077E+02</wgt>
<wgt id='5016'>0.80077E+02</wgt>
<wgt id='5017'>0.80894E+02</wgt>
<wgt id='5018'>0.80209E+02</wgt>
<wgt id='5019'>0.80759E+02</wgt>
<wgt id='5020'>0.80109E+02</wgt>
<wgt id='5021'>0.80565E+02</wgt>
<wgt id='5022'>0.80361E+02</wgt>
<wgt id='5023'>0.80420E+02</wgt>
<wgt id='5024'>0.80639E+02</wgt>
<wgt id='5025'>0.80260E+02</wgt>
<wgt id='5026'>0.80735E+02</wgt>
<wgt id='5027'>0.80536E+02</wgt>
<wgt id='5028'>0.80348E+02</wgt>
<wgt id='5029'>0.81369E+02</wgt>
<wgt id='5030'>0.79986E+02</wgt>
<wgt id='5031'>0.80006E+02</wgt>
<wgt id='5032'>0.81952E+02</wgt>
<wgt id='5033'>0.80454E+02</wgt>
<wgt id='5034'>0.80518E+02</wgt>
<wgt id='5035'>0.80495E+02</wgt>
<wgt id='5036'>0.80472E+02</wgt>
<wgt id='5037'>0.80290E+02</wgt>
<wgt id='5038'>0.80595E+02</wgt>
<wgt id='5039'>0.80686E+02</wgt>
<wgt id='5040'>0.79984E+02</wgt>
<wgt id='5041'>0.80514E+02</wgt>
<wgt id='5042'>0.80451E+02</wgt>
<wgt id='5043'>0.80667E+02</wgt>
<wgt id='5044'>0.80357E+02</wgt>
<wgt id='5045'>0.80349E+02</wgt>
<wgt id='5046'>0.80838E+02</wgt>
<wgt id='5047'>0.80544E+02</wgt>
<wgt id='5048'>0.80223E+02</wgt>
<wgt id='5049'>0.80443E+02</wgt>
<wgt id='5050'>0.80596E+02</wgt>
<wgt id='5051'>0.80641E+02</wgt>
<wgt id='5052'>0.80369E+02</wgt>
<wgt id='5053'>0.80498E+02</wgt>
<wgt id='5054'>0.80664E+02</wgt>
<wgt id='5055'>0.80519E+02</wgt>
<wgt id='5056'>0.80524E+02</wgt>
<wgt id='5057'>0.80197E+02</wgt>
<wgt id='5058'>0.80687E+02</wgt>
<wgt id='5059'>0.80433E+02</wgt>
<wgt id='5060'>0.80521E+02</wgt>
<wgt id='5061'>0.80795E+02</wgt>
<wgt id='5062'>0.80566E+02</wgt>
<wgt id='5063'>0.80818E+02</wgt>
<wgt id='5064'>0.80440E+02</wgt>
<wgt id='5100'>0.80485E+02</wgt>
<wgt id='5101'>0.80487E+02</wgt>
<wgt id='6000'>0.80289E+02</wgt>
<wgt id='6001'>0.80254E+02</wgt>
<wgt id='6002'>0.80114E+02</wgt>
<wgt id='6003'>0.80163E+02</wgt>
<wgt id='6004'>0.80394E+02</wgt>
<wgt id='6005'>0.80003E+02</wgt>
<wgt id='6006'>0.80485E+02</wgt>
<wgt id='6007'>0.80035E+02</wgt>
<wgt id='6008'>0.80206E+02</wgt>
<wgt id='6009'>0.80412E+02</wgt>
<wgt id='6010'>0.79207E+02</wgt>
<wgt id='6011'>0.80263E+02</wgt>
<wgt id='6012'>0.80530E+02</wgt>
<wgt id='6013'>0.80008E+02</wgt>
<wgt id='6014'>0.80103E+02</wgt>
<wgt id='6015'>0.79651E+02</wgt>
<wgt id='6016'>0.80470E+02</wgt>
<wgt id='6017'>0.80159E+02</wgt>
<wgt id='6018'>0.79981E+02</wgt>
<wgt id='6019'>0.80336E+02</wgt>
<wgt id='6020'>0.80437E+02</wgt>
<wgt id='6021'>0.80282E+02</wgt>
<wgt id='6022'>0.80368E+02</wgt>
<wgt id='6023'>0.80296E+02</wgt>
<wgt id='6024'>0.80372E+02</wgt>
<wgt id='6025'>0.80595E+02</wgt>
<wgt id='6026'>0.80261E+02</wgt>
<wgt id='6027'>0.80298E+02</wgt>
<wgt id='6028'>0.80075E+02</wgt>
<wgt id='6029'>0.80123E+02</wgt>
<wgt id='6030'>0.80412E+02</wgt>
<wgt id='6031'>0.80088E+02</wgt>
<wgt id='6032'>0.80297E+02</wgt>
<wgt id='6033'>0.80164E+02</wgt>
<wgt id='6034'>0.80566E+02</wgt>
<wgt id='6035'>0.80341E+02</wgt>
<wgt id='6036'>0.80840E+02</wgt>
<wgt id='6037'>0.80297E+02</wgt>
<wgt id='6038'>0.80321E+02</wgt>
<wgt id='6039'>0.80469E+02</wgt>
<wgt id='6040'>0.80270E+02</wgt>
<wgt id='6041'>0.78550E+02</wgt>
<wgt id='6042'>0.81339E+02</wgt>
<wgt id='7000'>0.79740E+02</wgt>
<wgt id='7001'>0.79067E+02</wgt>
<wgt id='7002'>0.79242E+02</wgt>
<wgt id='7003'>0.79112E+02</wgt>
<wgt id='7004'>0.79197E+02</wgt>
<wgt id='7005'>0.79236E+02</wgt>
<wgt id='7006'>0.79073E+02</wgt>
<wgt id='7007'>0.79657E+02</wgt>
<wgt id='7008'>0.78666E+02</wgt>
<wgt id='7009'>0.78766E+02</wgt>
<wgt id='7010'>0.79556E+02</wgt>
<wgt id='7011'>0.79432E+02</wgt>
<wgt id='7012'>0.78881E+02</wgt>
<wgt id='7013'>0.79057E+02</wgt>
<wgt id='7014'>0.79244E+02</wgt>
<wgt id='7015'>0.79124E+02</wgt>
<wgt id='7016'>0.78951E+02</wgt>
<wgt id='7017'>0.79163E+02</wgt>
<wgt id='7018'>0.79154E+02</wgt>
<wgt id='7019'>0.79088E+02</wgt>
<wgt id='7020'>0.79234E+02</wgt>
<wgt id='7021'>0.79572E+02</wgt>
<wgt id='7022'>0.78746E+02</wgt>
<wgt id='7023'>0.78647E+02</wgt>
<wgt id='7024'>0.79679E+02</wgt>
<wgt id='7025'>0.78018E+02</wgt>
<wgt id='7026'>0.80251E+02</wgt>
<wgt id='7027'>0.78674E+02</wgt>
<wgt id='7028'>0.79683E+02</wgt>
<wgt id='8000'>0.80213E+02</wgt>
<wgt id='8001'>0.80202E+02</wgt>
<wgt id='8002'>0.80236E+02</wgt>
<wgt id='8003'>0.80213E+02</wgt>
<wgt id='8004'>0.80211E+02</wgt>
<wgt id='8005'>0.80076E+02</wgt>
<wgt id='8006'>0.80316E+02</wgt>
<wgt id='8007'>0.80412E+02</wgt>
<wgt id='8008'>0.80393E+02</wgt>
<wgt id='8009'>0.80546E+02</wgt>
<wgt id='8010'>0.80110E+02</wgt>
<wgt id='8011'>0.80238E+02</wgt>
<wgt id='8012'>0.79888E+02</wgt>
<wgt id='8013'>0.80022E+02</wgt>
<wgt id='8014'>0.80438E+02</wgt>
<wgt id='8015'>0.80167E+02</wgt>
<wgt id='8016'>0.80302E+02</wgt>
<wgt id='8017'>0.80253E+02</wgt>
<wgt id='8018'>0.80458E+02</wgt>
<wgt id='8019'>0.80224E+02</wgt>
<wgt id='8020'>0.80247E+02</wgt>
<wgt id='8021'>0.80122E+02</wgt>
<wgt id='8022'>0.80267E+02</wgt>
<wgt id='8023'>0.80077E+02</wgt>
<wgt id='8024'>0.79869E+02</wgt>
<wgt id='8025'>0.80079E+02</wgt>
<wgt id='8026'>0.80295E+02</wgt>
<wgt id='8027'>0.80305E+02</wgt>
<wgt id='8028'>0.80261E+02</wgt>
<wgt id='8029'>0.80387E+02</wgt>
<wgt id='3000'>0.81104E+02</wgt>
<wgt id='3001'>0.81348E+02</wgt>
<wgt id='3002'>0.80047E+02</wgt>
<wgt id='3003'>0.80624E+02</wgt>
<wgt id='3004'>0.82103E+02</wgt>
<wgt id='3005'>0.81216E+02</wgt>
<wgt id='3006'>0.83064E+02</wgt>
<wgt id='3007'>0.80499E+02</wgt>
<wgt id='3008'>0.80272E+02</wgt>
<wgt id='3009'>0.81206E+02</wgt>
<wgt id='3010'>0.82961E+02</wgt>
<wgt id='3011'>0.81442E+02</wgt>
<wgt id='3012'>0.82060E+02</wgt>
<wgt id='3013'>0.80015E+02</wgt>
<wgt id='3014'>0.81007E+02</wgt>
<wgt id='3015'>0.80201E+02</wgt>
<wgt id='3016'>0.81570E+02</wgt>
<wgt id='3017'>0.82618E+02</wgt>
<wgt id='3018'>0.81124E+02</wgt>
<wgt id='3019'>0.79256E+02</wgt>
<wgt id='3020'>0.79983E+02</wgt>
<wgt id='3021'>0.79400E+02</wgt>
<wgt id='3022'>0.78807E+02</wgt>
<wgt id='3023'>0.79511E+02</wgt>
<wgt id='3024'>0.80671E+02</wgt>
<wgt id='3025'>0.79999E+02</wgt>
<wgt id='3026'>0.80072E+02</wgt>
<wgt id='3027'>0.79678E+02</wgt>
<wgt id='3028'>0.80554E+02</wgt>
<wgt id='3029'>0.82157E+02</wgt>
<wgt id='3030'>0.82220E+02</wgt>
<wgt id='3031'>0.81468E+02</wgt>
<wgt id='3032'>0.82209E+02</wgt>
<wgt id='3033'>0.80459E+02</wgt>
<wgt id='3034'>0.82416E+02</wgt>
<wgt id='3035'>0.80632E+02</wgt>
<wgt id='3036'>0.80488E+02</wgt>
<wgt id='3037'>0.79924E+02</wgt>
<wgt id='3038'>0.81039E+02</wgt>
<wgt id='3039'>0.80929E+02</wgt>
<wgt id='3040'>0.81390E+02</wgt>
<wgt id='3041'>0.81454E+02</wgt>
<wgt id='3042'>0.82102E+02</wgt>
<wgt id='3043'>0.81763E+02</wgt>
<wgt id='3044'>0.81945E+02</wgt>
<wgt id='3045'>0.81443E+02</wgt>
<wgt id='3046'>0.81718E+02</wgt>
<wgt id='3047'>0.80624E+02</wgt>
<wgt id='3048'>0.80754E+02</wgt>
<wgt id='3049'>0.80372E+02</wgt>
<wgt id='3050'>0.81252E+02</wgt>
<wgt id='3051'>0.81171E+02</wgt>
<wgt id='3052'>0.79864E+02</wgt>
<wgt id='3053'>0.80964E+02</wgt>
<wgt id='3054'>0.80792E+02</wgt>
<wgt id='3055'>0.80552E+02</wgt>
<wgt id='3056'>0.81079E+02</wgt>
<wgt id='3057'>0.80195E+02</wgt>
<wgt id='3058'>0.80481E+02</wgt>
<wgt id='3059'>0.81560E+02</wgt>
<wgt id='3060'>0.80932E+02</wgt>
<wgt id='3061'>0.80825E+02</wgt>
<wgt id='3062'>0.80947E+02</wgt>
<wgt id='3063'>0.79628E+02</wgt>
<wgt id='3064'>0.81641E+02</wgt>
<wgt id='3065'>0.80175E+02</wgt>
<wgt id='3066'>0.82156E+02</wgt>
<wgt id='3067'>0.80132E+02</wgt>
<wgt id='3068'>0.81143E+02</wgt>
<wgt id='3069'>0.81274E+02</wgt>
<wgt id='3070'>0.80971E+02</wgt>
<wgt id='3071'>0.81262E+02</wgt>
<wgt id='3072'>0.79539E+02</wgt>
<wgt id='3073'>0.81773E+02</wgt>
<wgt id='3074'>0.80867E+02</wgt>
<wgt id='3075'>0.82305E+02</wgt>
<wgt id='3076'>0.82492E+02</wgt>
<wgt id='3077'>0.81015E+02</wgt>
<wgt id='3078'>0.80437E+02</wgt>
<wgt id='3079'>0.80717E+02</wgt>
<wgt id='3080'>0.82573E+02</wgt>
<wgt id='3081'>0.80768E+02</wgt>
<wgt id='3082'>0.81570E+02</wgt>
<wgt id='3083'>0.81763E+02</wgt>
<wgt id='3084'>0.80821E+02</wgt>
<wgt id='3085'>0.80937E+02</wgt>
<wgt id='3086'>0.81557E+02</wgt>
<wgt id='3087'>0.81229E+02</wgt>
<wgt id='3088'>0.83052E+02</wgt>
<wgt id='3089'>0.83917E+02</wgt>
<wgt id='3090'>0.82423E+02</wgt>
<wgt id='3091'>0.81050E+02</wgt>
<wgt id='3092'>0.81991E+02</wgt>
<wgt id='3093'>0.81388E+02</wgt>
<wgt id='3094'>0.81642E+02</wgt>
<wgt id='3095'>0.81704E+02</wgt>
<wgt id='3096'>0.80322E+02</wgt>
<wgt id='3097'>0.82013E+02</wgt>
<wgt id='3098'>0.82069E+02</wgt>
<wgt id='3099'>0.80026E+02</wgt>
<wgt id='3100'>0.80401E+02</wgt>
<wgt id='3200'>0.78332E+02</wgt>
<wgt id='3201'>0.78951E+02</wgt>
<wgt id='3202'>0.76982E+02</wgt>
<wgt id='3203'>0.78679E+02</wgt>
<wgt id='3204'>0.77558E+02</wgt>
<wgt id='3205'>0.78980E+02</wgt>
<wgt id='3206'>0.79112E+02</wgt>
<wgt id='3207'>0.79293E+02</wgt>
<wgt id='3208'>0.78827E+02</wgt>
<wgt id='3209'>0.78130E+02</wgt>
<wgt id='3210'>0.78318E+02</wgt>
<wgt id='3211'>0.78714E+02</wgt>
<wgt id='3212'>0.77618E+02</wgt>
<wgt id='3213'>0.78470E+02</wgt>
<wgt id='3214'>0.78188E+02</wgt>
<wgt id='3215'>0.78451E+02</wgt>
<wgt id='3216'>0.79390E+02</wgt>
<wgt id='3217'>0.78625E+02</wgt>
<wgt id='3218'>0.78582E+02</wgt>
<wgt id='3219'>0.77987E+02</wgt>
<wgt id='3220'>0.77971E+02</wgt>
<wgt id='3221'>0.78853E+02</wgt>
<wgt id='3222'>0.79726E+02</wgt>
<wgt id='3223'>0.78346E+02</wgt>
<wgt id='3224'>0.78259E+02</wgt>
<wgt id='3225'>0.79131E+02</wgt>
<wgt id='3226'>0.78469E+02</wgt>
<wgt id='3227'>0.77805E+02</wgt>
<wgt id='3228'>0.77648E+02</wgt>
<wgt id='3229'>0.78825E+02</wgt>
<wgt id='3230'>0.78800E+02</wgt>
<wgt id='3231'>0.78543E+02</wgt>
<wgt id='3232'>0.78668E+02</wgt>
<wgt id='3233'>0.79181E+02</wgt>
<wgt id='3234'>0.77829E+02</wgt>
<wgt id='3235'>0.77924E+02</wgt>
<wgt id='3236'>0.77530E+02</wgt>
<wgt id='3237'>0.78172E+02</wgt>
<wgt id='3238'>0.77824E+02</wgt>
<wgt id='3239'>0.77887E+02</wgt>
<wgt id='3240'>0.77576E+02</wgt>
<wgt id='3241'>0.79124E+02</wgt>
<wgt id='3242'>0.77979E+02</wgt>
<wgt id='3243'>0.77528E+02</wgt>
<wgt id='3244'>0.78126E+02</wgt>
<wgt id='3245'>0.78547E+02</wgt>
<wgt id='3246'>0.77293E+02</wgt>
<wgt id='3247'>0.78538E+02</wgt>
<wgt id='3248'>0.78075E+02</wgt>
<wgt id='3249'>0.77496E+02</wgt>
<wgt id='3250'>0.78523E+02</wgt>
<wgt id='3251'>0.78142E+02</wgt>
<wgt id='3252'>0.78754E+02</wgt>
<wgt id='3253'>0.77973E+02</wgt>
<wgt id='3254'>0.77843E+02</wgt>
<wgt id='3255'>0.78061E+02</wgt>
<wgt id='3256'>0.78348E+02</wgt>
<wgt id='3257'>0.78103E+02</wgt>
<wgt id='3258'>0.78389E+02</wgt>
<wgt id='3259'>0.78394E+02</wgt>
<wgt id='3260'>0.78658E+02</wgt>
<wgt id='3261'>0.78911E+02</wgt>
<wgt id='3262'>0.78315E+02</wgt>
<wgt id='3263'>0.79478E+02</wgt>
<wgt id='3264'>0.78242E+02</wgt>
<wgt id='3265'>0.78201E+02</wgt>
<wgt id='3266'>0.78172E+02</wgt>
<wgt id='3267'>0.78021E+02</wgt>
<wgt id='3268'>0.78479E+02</wgt>
<wgt id='3269'>0.78483E+02</wgt>
<wgt id='3270'>0.78590E+02</wgt>
<wgt id='3271'>0.78518E+02</wgt>
<wgt id='3272'>0.78742E+02</wgt>
<wgt id='3273'>0.78134E+02</wgt>
<wgt id='3274'>0.78185E+02</wgt>
<wgt id='3275'>0.78749E+02</wgt>
<wgt id='3276'>0.77570E+02</wgt>
<wgt id='3277'>0.77665E+02</wgt>
<wgt id='3278'>0.78360E+02</wgt>
<wgt id='3279'>0.79048E+02</wgt>
<wgt id='3280'>0.78221E+02</wgt>
<wgt id='3281'>0.78743E+02</wgt>
<wgt id='3282'>0.78613E+02</wgt>
<wgt id='3283'>0.78662E+02</wgt>
<wgt id='3284'>0.78529E+02</wgt>
<wgt id='3285'>0.77797E+02</wgt>
<wgt id='3286'>0.77661E+02</wgt>
<wgt id='3287'>0.78362E+02</wgt>
<wgt id='3288'>0.78358E+02</wgt>
<wgt id='3289'>0.79191E+02</wgt>
<wgt id='3290'>0.79023E+02</wgt>
<wgt id='3291'>0.76860E+02</wgt>
<wgt id='3292'>0.77584E+02</wgt>
<wgt id='3293'>0.78358E+02</wgt>
<wgt id='3294'>0.77089E+02</wgt>
<wgt id='3295'>0.77907E+02</wgt>
<wgt id='3296'>0.79533E+02</wgt>
<wgt id='3297'>0.77943E+02</wgt>
<wgt id='3298'>0.77975E+02</wgt>
<wgt id='3299'>0.78168E+02</wgt>
<wgt id='3300'>0.79088E+02</wgt>
<wgt id='3301'>0.76575E+02</wgt>
<wgt id='3302'>0.79876E+02</wgt>
<wgt id='3400'>0.78565E+02</wgt>
<wgt id='3401'>0.78693E+02</wgt>
<wgt id='3402'>0.77727E+02</wgt>
<wgt id='3403'>0.79176E+02</wgt>
<wgt id='3404'>0.79608E+02</wgt>
<wgt id='3405'>0.79394E+02</wgt>
<wgt id='3406'>0.78755E+02</wgt>
<wgt id='3407'>0.78009E+02</wgt>
<wgt id='3408'>0.79684E+02</wgt>
<wgt id='3409'>0.79717E+02</wgt>
<wgt id='3410'>0.79256E+02</wgt>
<wgt id='3411'>0.79103E+02</wgt>
<wgt id='3412'>0.79087E+02</wgt>
<wgt id='3413'>0.78429E+02</wgt>
<wgt id='3414'>0.78344E+02</wgt>
<wgt id='3415'>0.78530E+02</wgt>
<wgt id='3416'>0.78274E+02</wgt>
<wgt id='3417'>0.78271E+02</wgt>
<wgt id='3418'>0.78009E+02</wgt>
<wgt id='3419'>0.77869E+02</wgt>
<wgt id='3420'>0.78676E+02</wgt>
<wgt id='3421'>0.78898E+02</wgt>
<wgt id='3422'>0.78544E+02</wgt>
<wgt id='3423'>0.79323E+02</wgt>
<wgt id='3424'>0.78978E+02</wgt>
<wgt id='3425'>0.78691E+02</wgt>
<wgt id='3426'>0.78358E+02</wgt>
<wgt id='3427'>0.78498E+02</wgt>
<wgt id='3428'>0.78947E+02</wgt>
<wgt id='3429'>0.77954E+02</wgt>
<wgt id='3430'>0.78524E+02</wgt>
<wgt id='3431'>0.78374E+02</wgt>
<wgt id='3432'>0.78309E+02</wgt>
<wgt id='3433'>0.77658E+02</wgt>
<wgt id='3434'>0.79016E+02</wgt>
<wgt id='3435'>0.79259E+02</wgt>
<wgt id='3436'>0.78417E+02</wgt>
<wgt id='3437'>0.78384E+02</wgt>
<wgt id='3438'>0.77840E+02</wgt>
<wgt id='3439'>0.78593E+02</wgt>
<wgt id='3440'>0.78840E+02</wgt>
<wgt id='3441'>0.78647E+02</wgt>
<wgt id='3442'>0.77548E+02</wgt>
<wgt id='3443'>0.78590E+02</wgt>
<wgt id='3444'>0.78438E+02</wgt>
<wgt id='3445'>0.78176E+02</wgt>
<wgt id='3446'>0.79348E+02</wgt>
<wgt id='3447'>0.79256E+02</wgt>
<wgt id='3448'>0.79271E+02</wgt>
<wgt id='3449'>0.79512E+02</wgt>
<wgt id='3450'>0.78687E+02</wgt>
<wgt id='3451'>0.79034E+02</wgt>
<wgt id='3452'>0.78304E+02</wgt>
<wgt id='3453'>0.77487E+02</wgt>
<wgt id='3454'>0.78070E+02</wgt>
<wgt id='3455'>0.79429E+02</wgt>
<wgt id='3456'>0.78696E+02</wgt>
<wgt id='3457'>0.79858E+02</wgt>
<wgt id='3458'>0.78766E+02</wgt>
<wgt id='3459'>0.78550E+02</wgt>
<wgt id='3460'>0.78501E+02</wgt>
<wgt id='3461'>0.77951E+02</wgt>
<wgt id='3462'>0.78629E+02</wgt>
<wgt id='3463'>0.77878E+02</wgt>
<wgt id='3464'>0.78790E+02</wgt>
<wgt id='3465'>0.78951E+02</wgt>
<wgt id='3466'>0.79097E+02</wgt>
<wgt id='3467'>0.78141E+02</wgt>
<wgt id='3468'>0.78423E+02</wgt>
<wgt id='3469'>0.78504E+02</wgt>
<wgt id='3470'>0.78187E+02</wgt>
<wgt id='3471'>0.78252E+02</wgt>
<wgt id='3472'>0.77704E+02</wgt>
<wgt id='3473'>0.79218E+02</wgt>
<wgt id='3474'>0.78490E+02</wgt>
<wgt id='3475'>0.78748E+02</wgt>
<wgt id='3476'>0.78282E+02</wgt>
<wgt id='3477'>0.78114E+02</wgt>
<wgt id='3478'>0.79594E+02</wgt>
<wgt id='3479'>0.78621E+02</wgt>
<wgt id='3480'>0.78110E+02</wgt>
<wgt id='3481'>0.78514E+02</wgt>
<wgt id='3482'>0.78858E+02</wgt>
<wgt id='3483'>0.77798E+02</wgt>
<wgt id='3484'>0.78530E+02</wgt>
<wgt id='3485'>0.78104E+02</wgt>
<wgt id='3486'>0.77304E+02</wgt>
<wgt id='3487'>0.78981E+02</wgt>
<wgt id='3488'>0.78664E+02</wgt>
<wgt id='3489'>0.77816E+02</wgt>
<wgt id='3490'>0.79589E+02</wgt>
<wgt id='3491'>0.78429E+02</wgt>
<wgt id='3492'>0.78703E+02</wgt>
<wgt id='3493'>0.78196E+02</wgt>
<wgt id='3494'>0.76419E+02</wgt>
<wgt id='3495'>0.78837E+02</wgt>
<wgt id='3496'>0.77724E+02</wgt>
<wgt id='3497'>0.78248E+02</wgt>
<wgt id='3498'>0.78625E+02</wgt>
<wgt id='3499'>0.78382E+02</wgt>
<wgt id='3500'>0.78915E+02</wgt>
</rwgt>
</event>
<event>
     13 322200  8.11039E+01  5.76101E+00 -1.00000E+00  2.22700E-01
      -2    -1     0     0     0   512  0.000000000E+00  0.000000000E+00  2.722567792E+02  2.722567792E+02  0.000000000E+00  0.00000E+00  9.000E+00
       2    -1     0     0   502     0  0.000000000E+00  0.000000000E+00 -1.316981356E+03  1.316981356E+03  0.000000000E+00  0.00000E+00  9.000E+00
       6     2     1     2   502     0 -1.163588531E+02  3.410792635E+01 -1.036178398E+03  1.057984235E+03  1.759608920E+02  0.00000E+00  9.000E+00
      -6     2     1     2     0   513  1.211820838E+02 -3.095742245E+01 -2.281842948E+02  3.115402432E+02  1.713061332E+02  0.00000E+00  9.000E+00
      21     1     1     2   513   512 -4.823230652E+00 -3.150503899E+00  2.196381159E+02  2.197136573E+02  3.814697266E-06  0.00000E+00  9.000E+00
      24     2     3     3     0     0 -1.049926629E+02 -4.046596888E+01 -7.159204831E+02  7.289231589E+02  7.826799776E+01  0.00000E+00  9.000E+00
       5     1     3     3   502     0 -1.136619018E+01  7.457389523E+01 -3.202579148E+02  3.290610760E+02  5.060000000E+00  0.00000E+00 -1.000E+00
     -24     2     4     4     0     0  4.034884918E+01  3.135438269E+01 -5.744450632E+01  1.125566965E+02  8.220712662E+01  0.00000E+00  9.000E+00
      -5     1     4     4     0   513  8.083323461E+01 -6.231180515E+01 -1.707397885E+02  1.989835467E+02  5.060000000E+00  0.00000E+00  1.000E+00
     -13     1     6     6     0     0 -4.667801802E+00  1.122629191E+01 -2.194486858E+02  2.197852472E+02  1.057000000E-01  0.00000E+00  1.000E+00
      14     1     6     6     0     0 -1.003248611E+02 -5.169226079E+01 -4.964717973E+02  5.091379117E+02  0.000000000E+00  0.00000E+00 -1.000E+00
      15     1     8     8     0     0  5.265880326E+01  1.240101018E+01 -6.857551600E+01  8.736414447E+01  1.777000000E+00  0.00000E+00 -1.000E+00
     -16     1     8     8     0     0 -1.230995408E+01  1.895337252E+01  1.113100968E+01  2.519255199E+01  0.000000000E+00  0.00000E+00  1.000E+00
#rwgt            1           5   54.844268953522523               10       26980           0
<rwgt>
<wgt id='1001'>0.81104E+02</wgt>
<wgt id='1002'>0.81349E+02</wgt>
<wgt id='1003'>0.81093E+02</wgt>
<wgt id='1004'>0.70256E+02</wgt>
<wgt id='1005'>0.70422E+02</wgt>
<wgt id='1006'>0.70229E+02</wgt>
<wgt id='1007'>0.94594E+02</wgt>
<wgt id='1008'>0.94959E+02</wgt>
<wgt id='1009'>0.94612E+02</wgt>
<wgt id='2000'>0.81104E+02</wgt>
<wgt id='2001'>0.81084E+02</wgt>
<wgt id='2002'>0.81055E+02</wgt>
<wgt id='2003'>0.81064E+02</wgt>
<wgt id='2004'>0.81054E+02</wgt>
<wgt id='2005'>0.81310E+02</wgt>
<wgt id='2006'>0.80891E+02</wgt>
<wgt id='2007'>0.81214E+02</wgt>
<wgt id='2008'>0.80941E+02</wgt>
<wgt id='2009'>0.81504E+02</wgt>
<wgt id='2010'>0.80808E+02</wgt>
<wgt id='2011'>0.81075E+02</wgt>
<wgt id='2012'>0.80952E+02</wgt>
<wgt id='2013'>0.81089E+02</wgt>
<wgt id='2014'>0.81267E+02</wgt>
<wgt id='2015'>0.81332E+02</wgt>
<wgt id='2016'>0.80997E+02</wgt>
<wgt id='2017'>0.81045E+02</wgt>
<wgt id='2018'>0.80763E+02</wgt>
<wgt id='2019'>0.81030E+02</wgt>
<wgt id='2020'>0.80787E+02</wgt>
<wgt id='2021'>0.80902E+02</wgt>
<wgt id='2022'>0.81510E+02</wgt>
<wgt id='2023'>0.80806E+02</wgt>
<wgt id='2024'>0.80907E+02</wgt>
<wgt id='2025'>0.80987E+02</wgt>
<wgt id='2026'>0.81106E+02</wgt>
<wgt id='2027'>0.80993E+02</wgt>
<wgt id='2028'>0.81351E+02</wgt>
<wgt id='2029'>0.81582E+02</wgt>
<wgt id='2030'>0.81260E+02</wgt>
<wgt id='2031'>0.81915E+02</wgt>
<wgt id='2032'>0.81104E+02</wgt>
<wgt id='2033'>0.81211E+02</wgt>
<wgt id='2034'>0.81280E+02</wgt>
<wgt id='2035'>0.81021E+02</wgt>
<wgt id='2036'>0.80825E+02</wgt>
<wgt id='2037'>0.81657E+02</wgt>
<wgt id='2038'>0.81132E+02</wgt>
<wgt id='2039'>0.81082E+02</wgt>
<wgt id='2040'>0.81544E+02</wgt>
<wgt id='2041'>0.81359E+02</wgt>
<wgt id='2042'>0.81196E+02</wgt>
<wgt id='2043'>0.81158E+02</wgt>
<wgt id='2044'>0.80947E+02</wgt>
<wgt id='2045'>0.81075E+02</wgt>
<wgt id='2046'>0.80929E+02</wgt>
<wgt id='2047'>0.80987E+02</wgt>
<wgt id='2048'>0.80895E+02</wgt>
<wgt id='2049'>0.81056E+02</wgt>
<wgt id='2050'>0.81047E+02</wgt>
<wgt id='2051'>0.80983E+02</wgt>
<wgt id='2052'>0.81230E+02</wgt>
<wgt id='2053'>0.80994E+02</wgt>
<wgt id='2054'>0.81181E+02</wgt>
<wgt id='2055'>0.81158E+02</wgt>
<wgt id='2056'>0.81340E+02</wgt>
<wgt id='2057'>0.81238E+02</wgt>
<wgt id='2058'>0.81047E+02</wgt>
<wgt id='2059'>0.81261E+02</wgt>
<wgt id='2060'>0.81115E+02</wgt>
<wgt id='2061'>0.81069E+02</wgt>
<wgt id='2062'>0.81098E+02</wgt>
<wgt id='2063'>0.81168E+02</wgt>
<wgt id='2064'>0.81183E+02</wgt>
<wgt id='2065'>0.81094E+02</wgt>
<wgt id='2066'>0.80980E+02</wgt>
<wgt id='2067'>0.81156E+02</wgt>
<wgt id='2068'>0.80987E+02</wgt>
<wgt id='2069'>0.81142E+02</wgt>
<wgt id='2070'>0.81055E+02</wgt>
<wgt id='2071'>0.81123E+02</wgt>
<wgt id='2072'>0.81135E+02</wgt>
<wgt id='2073'>0.81245E+02</wgt>
<wgt id='2074'>0.81114E+02</wgt>
<wgt id='2075'>0.81126E+02</wgt>
<wgt id='2076'>0.81093E+02</wgt>
<wgt id='2077'>0.81053E+02</wgt>
<wgt id='2078'>0.81077E+02</wgt>
<wgt id='2079'>0.81114E+02</wgt>
<wgt id='2080'>0.81112E+02</wgt>
<wgt id='2081'>0.81121E+02</wgt>
<wgt id='2082'>0.81135E+02</wgt>
<wgt id='2083'>0.81150E+02</wgt>
<wgt id='2084'>0.81104E+02</wgt>
<wgt id='2085'>0.81102E+02</wgt>
<wgt id='2086'>0.81075E+02</wgt>
<wgt id='2087'>0.81151E+02</wgt>
<wgt id='2088'>0.81107E+02</wgt>
<wgt id='2089'>0.81154E+02</wgt>
<wgt id='2090'>0.81143E+02</wgt>
<wgt id='2091'>0.81102E+02</wgt>
<wgt id='2092'>0.81161E+02</wgt>
<wgt id='2093'>0.81106E+02</wgt>
<wgt id='2094'>0.81122E+02</wgt>
<wgt id='2095'>0.81114E+02</wgt>
<wgt id='2096'>0.81130E+02</wgt>
<wgt id='2097'>0.81114E+02</wgt>
<wgt id='2098'>0.81078E+02</wgt>
<wgt id='2099'>0.81136E+02</wgt>
<wgt id='2100'>0.81104E+02</wgt>
<wgt id='2101'>0.77982E+02</wgt>
<wgt id='2102'>0.84365E+02</wgt>
<wgt id='2200'>0.81168E+02</wgt>
<wgt id='2201'>0.66383E+02</wgt>
<wgt id='2202'>0.69104E+02</wgt>
<wgt id='2203'>0.72317E+02</wgt>
<wgt id='2204'>0.75329E+02</wgt>
<wgt id='2205'>0.79843E+02</wgt>
<wgt id='2206'>0.82653E+02</wgt>
<wgt id='2207'>0.87331E+02</wgt>
<wgt id='2208'>0.90534E+02</wgt>
<wgt id='2300'>0.82021E+02</wgt>
<wgt id='2301'>0.82063E+02</wgt>
<wgt id='2302'>0.81965E+02</wgt>
<wgt id='2303'>0.82147E+02</wgt>
<wgt id='2304'>0.82047E+02</wgt>
<wgt id='2305'>0.82176E+02</wgt>
<wgt id='2306'>0.82043E+02</wgt>
<wgt id='2307'>0.82205E+02</wgt>
<wgt id='2308'>0.81819E+02</wgt>
<wgt id='2309'>0.82236E+02</wgt>
<wgt id='2310'>0.81719E+02</wgt>
<wgt id='2311'>0.81967E+02</wgt>
<wgt id='2312'>0.82024E+02</wgt>
<wgt id='2313'>0.81913E+02</wgt>
<wgt id='2314'>0.82471E+02</wgt>
<wgt id='2315'>0.81651E+02</wgt>
<wgt id='2316'>0.82062E+02</wgt>
<wgt id='2317'>0.82023E+02</wgt>
<wgt id='2318'>0.82083E+02</wgt>
<wgt id='2319'>0.81817E+02</wgt>
<wgt id='2320'>0.81518E+02</wgt>
<wgt id='2321'>0.82390E+02</wgt>
<wgt id='2322'>0.82220E+02</wgt>
<wgt id='2323'>0.82392E+02</wgt>
<wgt id='2324'>0.81972E+02</wgt>
<wgt id='2325'>0.81517E+02</wgt>
<wgt id='2326'>0.81906E+02</wgt>
<wgt id='2327'>0.82125E+02</wgt>
<wgt id='2328'>0.82281E+02</wgt>
<wgt id='2329'>0.82409E+02</wgt>
<wgt id='2330'>0.80798E+02</wgt>
<wgt id='2331'>0.81860E+02</wgt>
<wgt id='2332'>0.81947E+02</wgt>
<wgt id='2333'>0.82432E+02</wgt>
<wgt id='2334'>0.82172E+02</wgt>
<wgt id='2335'>0.82249E+02</wgt>
<wgt id='2336'>0.82161E+02</wgt>
<wgt id='2337'>0.81675E+02</wgt>
<wgt id='2338'>0.82124E+02</wgt>
<wgt id='2339'>0.81972E+02</wgt>
<wgt id='2340'>0.82036E+02</wgt>
<wgt id='2341'>0.81954E+02</wgt>
<wgt id='2342'>0.82154E+02</wgt>
<wgt id='2343'>0.81743E+02</wgt>
<wgt id='2344'>0.82033E+02</wgt>
<wgt id='2345'>0.82149E+02</wgt>
<wgt id='2346'>0.82059E+02</wgt>
<wgt id='2347'>0.81805E+02</wgt>
<wgt id='2348'>0.81990E+02</wgt>
<wgt id='2349'>0.82150E+02</wgt>
<wgt id='2350'>0.81971E+02</wgt>
<wgt id='2351'>0.82096E+02</wgt>
<wgt id='2352'>0.82115E+02</wgt>
<wgt id='2353'>0.81929E+02</wgt>
<wgt id='2354'>0.81928E+02</wgt>
<wgt id='2355'>0.81931E+02</wgt>
<wgt id='2356'>0.82094E+02</wgt>
<wgt id='2357'>0.82107E+02</wgt>
<wgt id='2358'>0.81974E+02</wgt>
<wgt id='2359'>0.81947E+02</wgt>
<wgt id='2360'>0.82035E+02</wgt>
<wgt id='2361'>0.82029E+02</wgt>
<wgt id='2362'>0.81896E+02</wgt>
<wgt id='2363'>0.82005E+02</wgt>
<wgt id='2364'>0.81987E+02</wgt>
<wgt id='2365'>0.81980E+02</wgt>
<wgt id='2366'>0.81986E+02</wgt>
<wgt id='2367'>0.81926E+02</wgt>
<wgt id='2368'>0.82111E+02</wgt>
<wgt id='2369'>0.81986E+02</wgt>
<wgt id='2370'>0.81897E+02</wgt>
<wgt id='2371'>0.81999E+02</wgt>
<wgt id='2372'>0.81904E+02</wgt>
<wgt id='2373'>0.82014E+02</wgt>
<wgt id='2374'>0.82127E+02</wgt>
<wgt id='2375'>0.82064E+02</wgt>
<wgt id='2376'>0.82061E+02</wgt>
<wgt id='2377'>0.81939E+02</wgt>
<wgt id='2378'>0.82077E+02</wgt>
<wgt id='2379'>0.82031E+02</wgt>
<wgt id='2380'>0.82025E+02</wgt>
<wgt id='2381'>0.82097E+02</wgt>
<wgt id='2382'>0.82037E+02</wgt>
<wgt id='2383'>0.82080E+02</wgt>
<wgt id='2384'>0.82060E+02</wgt>
<wgt id='2385'>0.82084E+02</wgt>
<wgt id='2386'>0.81996E+02</wgt>
<wgt id='2387'>0.82027E+02</wgt>
<wgt id='2388'>0.82006E+02</wgt>
<wgt id='2389'>0.82071E+02</wgt>
<wgt id='2390'>0.82022E+02</wgt>
<wgt id='2391'>0.82066E+02</wgt>
<wgt id='2392'>0.82037E+02</wgt>
<wgt id='2393'>0.82028E+02</wgt>
<wgt id='2394'>0.81995E+02</wgt>
<wgt id='2395'>0.82030E+02</wgt>
<wgt id='2396'>0.82011E+02</wgt>
<wgt id='2397'>0.81983E+02</wgt>
<wgt id='2398'>0.82016E+02</wgt>
<wgt id='2399'>0.82065E+02</wgt>
<wgt id='2400'>0.82109E+02</wgt>
<wgt id='2401'>0.78972E+02</wgt>
<wgt id='2402'>0.85294E+02</wgt>
<wgt id='2500'>0.78993E+02</wgt>
<wgt id='2501'>0.78820E+02</wgt>
<wgt id='2600'>0.80996E+02</wgt>
<wgt id='2601'>0.80818E+02</wgt>
<wgt id='2602'>0.81128E+02</wgt>
<wgt id='2603'>0.80972E+02</wgt>
<wgt id='2604'>0.81166E+02</wgt>
<wgt id='2605'>0.81133E+02</wgt>
<wgt id='2606'>0.80556E+02</wgt>
<wgt id='2607'>0.80912E+02</wgt>
<wgt id='2608'>0.81408E+02</wgt>
<wgt id='2609'>0.80886E+02</wgt>
<wgt id='2610'>0.80928E+02</wgt>
<wgt id='2611'>0.80745E+02</wgt>
<wgt id='2612'>0.81024E+02</wgt>
<wgt id='2613'>0.80862E+02</wgt>
<wgt id='2614'>0.80911E+02</wgt>
<wgt id='2615'>0.80747E+02</wgt>
<wgt id='2616'>0.80636E+02</wgt>
<wgt id='2617'>0.81314E+02</wgt>
<wgt id='2618'>0.81047E+02</wgt>
<wgt id='2619'>0.80599E+02</wgt>
<wgt id='2620'>0.80994E+02</wgt>
<wgt id='2621'>0.80999E+02</wgt>
<wgt id='2622'>0.80937E+02</wgt>
<wgt id='2623'>0.81067E+02</wgt>
<wgt id='2624'>0.80881E+02</wgt>
<wgt id='2625'>0.80835E+02</wgt>
<wgt id='2626'>0.81096E+02</wgt>
<wgt id='2627'>0.80990E+02</wgt>
<wgt id='2628'>0.80985E+02</wgt>
<wgt id='2629'>0.80959E+02</wgt>
<wgt id='2630'>0.80997E+02</wgt>
<wgt id='2631'>0.81042E+02</wgt>
<wgt id='2632'>0.80932E+02</wgt>
<wgt id='2633'>0.80971E+02</wgt>
<wgt id='2634'>0.80932E+02</wgt>
<wgt id='2635'>0.80963E+02</wgt>
<wgt id='2636'>0.80865E+02</wgt>
<wgt id='2637'>0.80974E+02</wgt>
<wgt id='2638'>0.81003E+02</wgt>
<wgt id='2639'>0.80989E+02</wgt>
<wgt id='2640'>0.80934E+02</wgt>
<wgt id='2641'>0.81015E+02</wgt>
<wgt id='2642'>0.80984E+02</wgt>
<wgt id='2643'>0.80966E+02</wgt>
<wgt id='2644'>0.80997E+02</wgt>
<wgt id='2645'>0.80966E+02</wgt>
<wgt id='2646'>0.80947E+02</wgt>
<wgt id='2647'>0.80970E+02</wgt>
<wgt id='2648'>0.80950E+02</wgt>
<wgt id='2649'>0.81035E+02</wgt>
<wgt id='2650'>0.80972E+02</wgt>
<wgt id='2651'>0.79999E+02</wgt>
<wgt id='2652'>0.82027E+02</wgt>
<wgt id='2700'>0.78778E+02</wgt>
<wgt id='2701'>0.79999E+02</wgt>
<wgt id='2702'>0.80530E+02</wgt>
<wgt id='2703'>0.81509E+02</wgt>
<wgt id='2704'>0.82027E+02</wgt>
<wgt id='2705'>0.83367E+02</wgt>
<wgt id='2800'>0.85231E+02</wgt>
<wgt id='4000'>0.80367E+02</wgt>
<wgt id='4001'>0.80545E+02</wgt>
<wgt id='4002'>0.80899E+02</wgt>
<wgt id='4003'>0.81454E+02</wgt>
<wgt id='4004'>0.79079E+02</wgt>
<wgt id='4005'>0.79909E+02</wgt>
<wgt id='4006'>0.80409E+02</wgt>
<wgt id='4007'>0.78233E+02</wgt>
<wgt id='4008'>0.82298E+02</wgt>
<wgt id='4009'>0.79295E+02</wgt>
<wgt id='4010'>0.81300E+02</wgt>
<wgt id='4011'>0.80969E+02</wgt>
<wgt id='4012'>0.80022E+02</wgt>
<wgt id='4013'>0.79636E+02</wgt>
<wgt id='4014'>0.80849E+02</wgt>
<wgt id='4015'>0.80145E+02</wgt>
<wgt id='4016'>0.80081E+02</wgt>
<wgt id='4017'>0.80582E+02</wgt>
<wgt id='4018'>0.79965E+02</wgt>
<wgt id='4019'>0.80509E+02</wgt>
<wgt id='4020'>0.79515E+02</wgt>
<wgt id='4021'>0.80305E+02</wgt>
<wgt id='4022'>0.80478E+02</wgt>
<wgt id='4023'>0.80231E+02</wgt>
<wgt id='4024'>0.80036E+02</wgt>
<wgt id='4025'>0.80337E+02</wgt>
<wgt id='4026'>0.80487E+02</wgt>
<wgt id='4027'>0.80029E+02</wgt>
<wgt id='4028'>0.80483E+02</wgt>
<wgt id='4029'>0.80466E+02</wgt>
<wgt id='4030'>0.79839E+02</wgt>
<wgt id='4031'>0.80230E+02</wgt>
<wgt id='4032'>0.80062E+02</wgt>
<wgt id='4033'>0.79740E+02</wgt>
<wgt id='4034'>0.80719E+02</wgt>
<wgt id='4035'>0.80751E+02</wgt>
<wgt id='4036'>0.80107E+02</wgt>
<wgt id='4037'>0.80655E+02</wgt>
<wgt id='4038'>0.79613E+02</wgt>
<wgt id='4039'>0.81237E+02</wgt>
<wgt id='4040'>0.79194E+02</wgt>
<wgt id='4041'>0.81072E+02</wgt>
<wgt id='4042'>0.79529E+02</wgt>
<wgt id='4043'>0.79430E+02</wgt>
<wgt id='4044'>0.81160E+02</wgt>
<wgt id='4045'>0.80441E+02</wgt>
<wgt id='4046'>0.80315E+02</wgt>
<wgt id='4047'>0.81203E+02</wgt>
<wgt id='4048'>0.79388E+02</wgt>
<wgt id='4049'>0.79182E+02</wgt>
<wgt id='4050'>0.81518E+02</wgt>
<wgt id='4051'>0.81691E+02</wgt>
<wgt id='4052'>0.78632E+02</wgt>
<wgt id='4053'>0.80885E+02</wgt>
<wgt id='4054'>0.79883E+02</wgt>
<wgt id='4055'>0.80708E+02</wgt>
<wgt id='4056'>0.80088E+02</wgt>
<wgt id='4057'>0.80214E+02</wgt>
<wgt id='4058'>0.80529E+02</wgt>
<wgt id='4100'>0.80614E+02</wgt>
<wgt id='4101'>0.80492E+02</wgt>
<wgt id='4102'>0.80250E+02</wgt>
<wgt id='4103'>0.80144E+02</wgt>
<wgt id='4200'>0.79742E+02</wgt>
<wgt id='4201'>0.80259E+02</wgt>
<wgt id='4202'>0.79677E+02</wgt>
<wgt id='4203'>0.80691E+02</wgt>
<wgt id='4204'>0.79012E+02</wgt>
<wgt id='4205'>0.80455E+02</wgt>
<wgt id='4206'>0.78841E+02</wgt>
<wgt id='4207'>0.79023E+02</wgt>
<wgt id='4208'>0.79681E+02</wgt>
<wgt id='4209'>0.79345E+02</wgt>
<wgt id='4210'>0.79674E+02</wgt>
<wgt id='4211'>0.79618E+02</wgt>
<wgt id='4212'>0.79760E+02</wgt>
<wgt id='4213'>0.80644E+02</wgt>
<wgt id='4214'>0.78243E+02</wgt>
<wgt id='4215'>0.79683E+02</wgt>
<wgt id='4216'>0.80082E+02</wgt>
<wgt id='4217'>0.80503E+02</wgt>
<wgt id='4218'>0.79287E+02</wgt>
<wgt id='4219'>0.79626E+02</wgt>
<wgt id='4220'>0.79980E+02</wgt>
<wgt id='4221'>0.79574E+02</wgt>
<wgt id='4222'>0.80133E+02</wgt>
<wgt id='4223'>0.79534E+02</wgt>
<wgt id='4224'>0.80189E+02</wgt>
<wgt id='4225'>0.79761E+02</wgt>
<wgt id='4226'>0.79362E+02</wgt>
<wgt id='4227'>0.79391E+02</wgt>
<wgt id='4228'>0.79999E+02</wgt>
<wgt id='4229'>0.80040E+02</wgt>
<wgt id='4230'>0.79216E+02</wgt>
<wgt id='4231'>0.80993E+02</wgt>
<wgt id='4232'>0.77838E+02</wgt>
<wgt id='4233'>0.80045E+02</wgt>
<wgt id='4234'>0.79527E+02</wgt>
<wgt id='4235'>0.79221E+02</wgt>
<wgt id='4236'>0.79896E+02</wgt>
<wgt id='4237'>0.80798E+02</wgt>
<wgt id='4238'>0.78920E+02</wgt>
<wgt id='4239'>0.80160E+02</wgt>
<wgt id='4240'>0.79227E+02</wgt>
<wgt id='4241'>0.80048E+02</wgt>
<wgt id='4242'>0.79432E+02</wgt>
<wgt id='4243'>0.79205E+02</wgt>
<wgt id='4244'>0.80444E+02</wgt>
<wgt id='4245'>0.78260E+02</wgt>
<wgt id='4246'>0.81282E+02</wgt>
<wgt id='4247'>0.80303E+02</wgt>
<wgt id='4248'>0.79274E+02</wgt>
<wgt id='4249'>0.80163E+02</wgt>
<wgt id='4250'>0.79185E+02</wgt>
<wgt id='4251'>0.79086E+02</wgt>
<wgt id='4252'>0.80132E+02</wgt>
<wgt id='4253'>0.79588E+02</wgt>
<wgt id='4254'>0.79895E+02</wgt>
<wgt id='4255'>0.79983E+02</wgt>
<wgt id='4256'>0.79099E+02</wgt>
<wgt id='4257'>0.79217E+02</wgt>
<wgt id='4258'>0.79908E+02</wgt>
<wgt id='4300'>0.78440E+02</wgt>
<wgt id='4301'>0.80357E+02</wgt>
<wgt id='5000'>0.77983E+02</wgt>
<wgt id='5001'>0.78034E+02</wgt>
<wgt id='5002'>0.77917E+02</wgt>
<wgt id='5003'>0.77660E+02</wgt>
<wgt id='5004'>0.78278E+02</wgt>
<wgt id='5005'>0.77824E+02</wgt>
<wgt id='5006'>0.78243E+02</wgt>
<wgt id='5007'>0.78122E+02</wgt>
<wgt id='5008'>0.77869E+02</wgt>
<wgt id='5009'>0.77980E+02</wgt>
<wgt id='5010'>0.77986E+02</wgt>
<wgt id='5011'>0.77926E+02</wgt>
<wgt id='5012'>0.78038E+02</wgt>
<wgt id='5013'>0.78241E+02</wgt>
<wgt id='5014'>0.77799E+02</wgt>
<wgt id='5015'>0.78274E+02</wgt>
<wgt id='5016'>0.78274E+02</wgt>
<wgt id='5017'>0.77884E+02</wgt>
<wgt id='5018'>0.78049E+02</wgt>
<wgt id='5019'>0.77447E+02</wgt>
<wgt id='5020'>0.78726E+02</wgt>
<wgt id='5021'>0.77932E+02</wgt>
<wgt id='5022'>0.78051E+02</wgt>
<wgt id='5023'>0.77968E+02</wgt>
<wgt id='5024'>0.78021E+02</wgt>
<wgt id='5025'>0.78077E+02</wgt>
<wgt id='5026'>0.77876E+02</wgt>
<wgt id='5027'>0.77917E+02</wgt>
<wgt id='5028'>0.78162E+02</wgt>
<wgt id='5029'>0.77203E+02</wgt>
<wgt id='5030'>0.78423E+02</wgt>
<wgt id='5031'>0.78108E+02</wgt>
<wgt id='5032'>0.77582E+02</wgt>
<wgt id='5033'>0.77961E+02</wgt>
<wgt id='5034'>0.78006E+02</wgt>
<wgt id='5035'>0.78261E+02</wgt>
<wgt id='5036'>0.77613E+02</wgt>
<wgt id='5037'>0.78404E+02</wgt>
<wgt id='5038'>0.77748E+02</wgt>
<wgt id='5039'>0.77873E+02</wgt>
<wgt id='5040'>0.78271E+02</wgt>
<wgt id='5041'>0.78185E+02</wgt>
<wgt id='5042'>0.77784E+02</wgt>
<wgt id='5043'>0.77097E+02</wgt>
<wgt id='5044'>0.78779E+02</wgt>
<wgt id='5045'>0.77773E+02</wgt>
<wgt id='5046'>0.78336E+02</wgt>
<wgt id='5047'>0.77994E+02</wgt>
<wgt id='5048'>0.78004E+02</wgt>
<wgt id='5049'>0.78181E+02</wgt>
<wgt id='5050'>0.77676E+02</wgt>
<wgt id='5051'>0.78112E+02</wgt>
<wgt id='5052'>0.77849E+02</wgt>
<wgt id='5053'>0.77550E+02</wgt>
<wgt id='5054'>0.78185E+02</wgt>
<wgt id='5055'>0.77826E+02</wgt>
<wgt id='5056'>0.77861E+02</wgt>
<wgt id='5057'>0.77815E+02</wgt>
<wgt id='5058'>0.78067E+02</wgt>
<wgt id='5059'>0.78157E+02</wgt>
<wgt id='5060'>0.77891E+02</wgt>
<wgt id='5061'>0.77875E+02</wgt>
<wgt id='5062'>0.77777E+02</wgt>
<wgt id='5063'>0.78359E+02</wgt>
<wgt id='5064'>0.78153E+02</wgt>
<wgt id='5100'>0.77983E+02</wgt>
<wgt id='5101'>0.78025E+02</wgt>
<wgt id='6000'>0.79072E+02</wgt>
<wgt id='6001'>0.79150E+02</wgt>
<wgt id='6002'>0.77658E+02</wgt>
<wgt id='6003'>0.78931E+02</wgt>
<wgt id='6004'>0.78966E+02</wgt>
<wgt id='6005'>0.79226E+02</wgt>
<wgt id='6006'>0.78568E+02</wgt>
<wgt id='6007'>0.79155E+02</wgt>
<wgt id='6008'>0.78363E+02</wgt>
<wgt id='6009'>0.79385E+02</wgt>
<wgt id='6010'>0.79051E+02</wgt>
<wgt id='6011'>0.79197E+02</wgt>
<wgt id='6012'>0.79209E+02</wgt>
<wgt id='6013'>0.79268E+02</wgt>
<wgt id='6014'>0.79194E+02</wgt>
<wgt id='6015'>0.79223E+02</wgt>
<wgt id='6016'>0.79420E+02</wgt>
<wgt id='6017'>0.79315E+02</wgt>
<wgt id='6018'>0.79512E+02</wgt>
<wgt id='6019'>0.79164E+02</wgt>
<wgt id='6020'>0.79176E+02</wgt>
<wgt id='6021'>0.78907E+02</wgt>
<wgt id='6022'>0.78941E+02</wgt>
<wgt id='6023'>0.79153E+02</wgt>
<wgt id='6024'>0.79101E+02</wgt>
<wgt id='6025'>0.78103E+02</wgt>
<wgt id='6026'>0.79154E+02</wgt>
<wgt id='6027'>0.79083E+02</wgt>
<wgt id='6028'>0.79072E+02</wgt>
<wgt id='6029'>0.79225E+02</wgt>
<wgt id='6030'>0.79302E+02</wgt>
<wgt id='6031'>0.78998E+02</wgt>
<wgt id='6032'>0.79139E+02</wgt>
<wgt id='6033'>0.79108E+02</wgt>
<wgt id='6034'>0.79109E+02</wgt>
<wgt id='6035'>0.79140E+02</wgt>
<wgt id='6036'>0.79126E+02</wgt>
<wgt id='6037'>0.79072E+02</wgt>
<wgt id='6038'>0.79074E+02</wgt>
<wgt id='6039'>0.79192E+02</wgt>
<wgt id='6040'>0.78937E+02</wgt>
<wgt id='6041'>0.77680E+02</wgt>
<wgt id='6042'>0.80837E+02</wgt>
<wgt id='7000'>0.87496E+02</wgt>
<wgt id='7001'>0.87559E+02</wgt>
<wgt id='7002'>0.87379E+02</wgt>
<wgt id='7003'>0.87371E+02</wgt>
<wgt id='7004'>0.87567E+02</wgt>
<wgt id='7005'>0.87283E+02</wgt>
<wgt id='7006'>0.87655E+02</wgt>
<wgt id='7007'>0.87182E+02</wgt>
<wgt id='7008'>0.87749E+02</wgt>
<wgt id='7009'>0.87938E+02</wgt>
<wgt id='7010'>0.86999E+02</wgt>
<wgt id='7011'>0.87771E+02</wgt>
<wgt id='7012'>0.87167E+02</wgt>
<wgt id='7013'>0.87189E+02</wgt>
<wgt id='7014'>0.87748E+02</wgt>
<wgt id='7015'>0.87295E+02</wgt>
<wgt id='7016'>0.87621E+02</wgt>
<wgt id='7017'>0.87710E+02</wgt>
<wgt id='7018'>0.87221E+02</wgt>
<wgt id='7019'>0.87381E+02</wgt>
<wgt id='7020'>0.87559E+02</wgt>
<wgt id='7021'>0.86891E+02</wgt>
<wgt id='7022'>0.88034E+02</wgt>
<wgt id='7023'>0.87506E+02</wgt>
<wgt id='7024'>0.87354E+02</wgt>
<wgt id='7025'>0.87149E+02</wgt>
<wgt id='7026'>0.87567E+02</wgt>
<wgt id='7027'>0.86957E+02</wgt>
<wgt id='7028'>0.87760E+02</wgt>
<wgt id='8000'>0.82035E+02</wgt>
<wgt id='8001'>0.82018E+02</wgt>
<wgt id='8002'>0.81955E+02</wgt>
<wgt id='8003'>0.82151E+02</wgt>
<wgt id='8004'>0.82036E+02</wgt>
<wgt id='8005'>0.82059E+02</wgt>
<wgt id='8006'>0.81931E+02</wgt>
<wgt id='8007'>0.82143E+02</wgt>
<wgt id='8008'>0.81642E+02</wgt>
<wgt id='8009'>0.81910E+02</wgt>
<wgt id='8010'>0.82053E+02</wgt>
<wgt id='8011'>0.81840E+02</wgt>
<wgt id='8012'>0.82153E+02</wgt>
<wgt id='8013'>0.82069E+02</wgt>
<wgt id='8014'>0.81912E+02</wgt>
<wgt id='8015'>0.82060E+02</wgt>
<wgt id='8016'>0.82014E+02</wgt>
<wgt id='8017'>0.81864E+02</wgt>
<wgt id='8018'>0.81808E+02</wgt>
<wgt id='8019'>0.82046E+02</wgt>
<wgt id='8020'>0.81665E+02</wgt>
<wgt id='8021'>0.81852E+02</wgt>
<wgt id='8022'>0.81963E+02</wgt>
<wgt id='8023'>0.82055E+02</wgt>
<wgt id='8024'>0.82219E+02</wgt>
<wgt id='8025'>0.82103E+02</wgt>
<wgt id='8026'>0.81749E+02</wgt>
<wgt id='8027'>0.81843E+02</wgt>
<wgt id='8028'>0.82163E+02</wgt>
<wgt id='8029'>0.81562E+02</wgt>
<wgt id='3000'>0.81104E+02</wgt>
<wgt id='3001'>0.84792E+02</wgt>
<wgt id='3002'>0.81743E+02</wgt>
<wgt id='3003'>0.79727E+02</wgt>
<wgt id='3004'>0.79618E+02</wgt>
<wgt id='3005'>0.79858E+02</wgt>
<wgt id='3006'>0.83492E+02</wgt>
<wgt id='3007'>0.82670E+02</wgt>
<wgt id='3008'>0.81153E+02</wgt>
<wgt id='3009'>0.79475E+02</wgt>
<wgt id='3010'>0.75376E+02</wgt>
<wgt id='3011'>0.81459E+02</wgt>
<wgt id='3012'>0.79389E+02</wgt>
<wgt id='3013'>0.79679E+02</wgt>
<wgt id='3014'>0.83580E+02</wgt>
<wgt id='3015'>0.82455E+02</wgt>
<wgt id='3016'>0.80691E+02</wgt>
<wgt id='3017'>0.80568E+02</wgt>
<wgt id='3018'>0.80492E+02</wgt>
<wgt id='3019'>0.81977E+02</wgt>
<wgt id='3020'>0.78590E+02</wgt>
<wgt id='3021'>0.81288E+02</wgt>
<wgt id='3022'>0.83202E+02</wgt>
<wgt id='3023'>0.82611E+02</wgt>
<wgt id='3024'>0.78958E+02</wgt>
<wgt id='3025'>0.82106E+02</wgt>
<wgt id='3026'>0.85339E+02</wgt>
<wgt id='3027'>0.78679E+02</wgt>
<wgt id='3028'>0.81785E+02</wgt>
<wgt id='3029'>0.80846E+02</wgt>
<wgt id='3030'>0.80989E+02</wgt>
<wgt id='3031'>0.82417E+02</wgt>
<wgt id='3032'>0.80526E+02</wgt>
<wgt id='3033'>0.83221E+02</wgt>
<wgt id='3034'>0.78392E+02</wgt>
<wgt id='3035'>0.81829E+02</wgt>
<wgt id='3036'>0.82875E+02</wgt>
<wgt id='3037'>0.80600E+02</wgt>
<wgt id='3038'>0.80818E+02</wgt>
<wgt id='3039'>0.81154E+02</wgt>
<wgt id='3040'>0.83519E+02</wgt>
<wgt id='3041'>0.82072E+02</wgt>
<wgt id='3042'>0.81607E+02</wgt>
<wgt id='3043'>0.80333E+02</wgt>
<wgt id='3044'>0.81923E+02</wgt>
<wgt id='3045'>0.83221E+02</wgt>
<wgt id='3046'>0.82097E+02</wgt>
<wgt id='3047'>0.81742E+02</wgt>
<wgt id='3048'>0.81808E+02</wgt>
<wgt id='3049'>0.82654E+02</wgt>
<wgt id='3050'>0.79099E+02</wgt>
<wgt id='3051'>0.80306E+02</wgt>
<wgt id='3052'>0.81385E+02</wgt>
<wgt id='3053'>0.81918E+02</wgt>
<wgt id='3054'>0.81551E+02</wgt>
<wgt id='3055'>0.84191E+02</wgt>
<wgt id='3056'>0.79571E+02</wgt>
<wgt id='3057'>0.81380E+02</wgt>
<wgt id='3058'>0.81806E+02</wgt>
<wgt id='3059'>0.82629E+02</wgt>
<wgt id='3060'>0.84310E+02</wgt>
<wgt id='3061'>0.79676E+02</wgt>
<wgt id='3062'>0.80013E+02</wgt>
<wgt id='3063'>0.80640E+02</wgt>
<wgt id='3064'>0.81079E+02</wgt>
<wgt id='3065'>0.82709E+02</wgt>
<wgt id='3066'>0.85049E+02</wgt>
<wgt id='3067'>0.81973E+02</wgt>
<wgt id='3068'>0.81396E+02</wgt>
<wgt id='3069'>0.81749E+02</wgt>
<wgt id='3070'>0.79408E+02</wgt>
<wgt id='3071'>0.80725E+02</wgt>
<wgt id='3072'>0.78522E+02</wgt>
<wgt id='3073'>0.78994E+02</wgt>
<wgt id='3074'>0.78912E+02</wgt>
<wgt id='3075'>0.79768E+02</wgt>
<wgt id='3076'>0.84157E+02</wgt>
<wgt id='3077'>0.77977E+02</wgt>
<wgt id='3078'>0.83010E+02</wgt>
<wgt id='3079'>0.81512E+02</wgt>
<wgt id='3080'>0.80613E+02</wgt>
<wgt id='3081'>0.80556E+02</wgt>
<wgt id='3082'>0.80691E+02</wgt>
<wgt id='3083'>0.80087E+02</wgt>
<wgt id='3084'>0.80209E+02</wgt>
<wgt id='3085'>0.82036E+02</wgt>
<wgt id='3086'>0.80244E+02</wgt>
<wgt id='3087'>0.78802E+02</wgt>
<wgt id='3088'>0.79571E+02</wgt>
<wgt id='3089'>0.76401E+02</wgt>
<wgt id='3090'>0.81132E+02</wgt>
<wgt id='3091'>0.81761E+02</wgt>
<wgt id='3092'>0.79859E+02</wgt>
<wgt id='3093'>0.79696E+02</wgt>
<wgt id='3094'>0.79300E+02</wgt>
<wgt id='3095'>0.79067E+02</wgt>
<wgt id='3096'>0.84090E+02</wgt>
<wgt id='3097'>0.81291E+02</wgt>
<wgt id='3098'>0.80886E+02</wgt>
<wgt id='3099'>0.82217E+02</wgt>
<wgt id='3100'>0.81342E+02</wgt>
<wgt id='3200'>0.81030E+02</wgt>
<wgt id='3201'>0.81067E+02</wgt>
<wgt id='3202'>0.80623E+02</wgt>
<wgt id='3203'>0.82624E+02</wgt>
<wgt id='3204'>0.79671E+02</wgt>
<wgt id='3205'>0.80588E+02</wgt>
<wgt id='3206'>0.81910E+02</wgt>
<wgt id='3207'>0.80376E+02</wgt>
<wgt id='3208'>0.82277E+02</wgt>
<wgt id='3209'>0.80897E+02</wgt>
<wgt id='3210'>0.80324E+02</wgt>
<wgt id='3211'>0.81381E+02</wgt>
<wgt id='3212'>0.83166E+02</wgt>
<wgt id='3213'>0.79141E+02</wgt>
<wgt id='3214'>0.79843E+02</wgt>
<wgt id='3215'>0.80054E+02</wgt>
<wgt id='3216'>0.79094E+02</wgt>
<wgt id='3217'>0.82111E+02</wgt>
<wgt id='3218'>0.80637E+02</wgt>
<wgt id='3219'>0.81711E+02</wgt>
<wgt id='3220'>0.81103E+02</wgt>
<wgt id='3221'>0.81001E+02</wgt>
<wgt id='3222'>0.80287E+02</wgt>
<wgt id='3223'>0.81676E+02</wgt>
<wgt id='3224'>0.79960E+02</wgt>
<wgt id='3225'>0.81989E+02</wgt>
<wgt id='3226'>0.81920E+02</wgt>
<wgt id='3227'>0.79772E+02</wgt>
<wgt id='3228'>0.80450E+02</wgt>
<wgt id='3229'>0.82027E+02</wgt>
<wgt id='3230'>0.80827E+02</wgt>
<wgt id='3231'>0.80698E+02</wgt>
<wgt id='3232'>0.80098E+02</wgt>
<wgt id='3233'>0.81685E+02</wgt>
<wgt id='3234'>0.80214E+02</wgt>
<wgt id='3235'>0.79948E+02</wgt>
<wgt id='3236'>0.79733E+02</wgt>
<wgt id='3237'>0.81621E+02</wgt>
<wgt id='3238'>0.80567E+02</wgt>
<wgt id='3239'>0.81629E+02</wgt>
<wgt id='3240'>0.83084E+02</wgt>
<wgt id='3241'>0.81645E+02</wgt>
<wgt id='3242'>0.79315E+02</wgt>
<wgt id='3243'>0.80945E+02</wgt>
<wgt id='3244'>0.80097E+02</wgt>
<wgt id='3245'>0.79792E+02</wgt>
<wgt id='3246'>0.81366E+02</wgt>
<wgt id='3247'>0.81016E+02</wgt>
<wgt id='3248'>0.83031E+02</wgt>
<wgt id='3249'>0.79865E+02</wgt>
<wgt id='3250'>0.82223E+02</wgt>
<wgt id='3251'>0.79914E+02</wgt>
<wgt id='3252'>0.80784E+02</wgt>
<wgt id='3253'>0.80843E+02</wgt>
<wgt id='3254'>0.82287E+02</wgt>
<wgt id='3255'>0.80587E+02</wgt>
<wgt id='3256'>0.79592E+02</wgt>
<wgt id='3257'>0.81277E+02</wgt>
<wgt id='3258'>0.80477E+02</wgt>
<wgt id='3259'>0.78920E+02</wgt>
<wgt id='3260'>0.79976E+02</wgt>
<wgt id='3261'>0.78910E+02</wgt>
<wgt id='3262'>0.83286E+02</wgt>
<wgt id='3263'>0.82141E+02</wgt>
<wgt id='3264'>0.80723E+02</wgt>
<wgt id='3265'>0.78587E+02</wgt>
<wgt id='3266'>0.81621E+02</wgt>
<wgt id='3267'>0.81549E+02</wgt>
<wgt id='3268'>0.81167E+02</wgt>
<wgt id='3269'>0.80283E+02</wgt>
<wgt id='3270'>0.82244E+02</wgt>
<wgt id='3271'>0.80817E+02</wgt>
<wgt id='3272'>0.81605E+02</wgt>
<wgt id='3273'>0.80750E+02</wgt>
<wgt id='3274'>0.80557E+02</wgt>
<wgt id='3275'>0.81164E+02</wgt>
<wgt id='3276'>0.81300E+02</wgt>
<wgt id='3277'>0.82258E+02</wgt>
<wgt id='3278'>0.81896E+02</wgt>
<wgt id='3279'>0.79941E+02</wgt>
<wgt id='3280'>0.80002E+02</wgt>
<wgt id='3281'>0.81484E+02</wgt>
<wgt id='3282'>0.81665E+02</wgt>
<wgt id='3283'>0.82417E+02</wgt>
<wgt id='3284'>0.80847E+02</wgt>
<wgt id='3285'>0.80105E+02</wgt>
<wgt id='3286'>0.83433E+02</wgt>
<wgt id='3287'>0.83851E+02</wgt>
<wgt id='3288'>0.81275E+02</wgt>
<wgt id='3289'>0.81199E+02</wgt>
<wgt id='3290'>0.81294E+02</wgt>
<wgt id='3291'>0.80479E+02</wgt>
<wgt id='3292'>0.82357E+02</wgt>
<wgt id='3293'>0.81186E+02</wgt>
<wgt id='3294'>0.81008E+02</wgt>
<wgt id='3295'>0.81908E+02</wgt>
<wgt id='3296'>0.83292E+02</wgt>
<wgt id='3297'>0.80292E+02</wgt>
<wgt id='3298'>0.80870E+02</wgt>
<wgt id='3299'>0.80820E+02</wgt>
<wgt id='3300'>0.80714E+02</wgt>
<wgt id='3301'>0.79999E+02</wgt>
<wgt id='3302'>0.82027E+02</wgt>
<wgt id='3400'>0.81370E+02</wgt>
<wgt id='3401'>0.81306E+02</wgt>
<wgt id='3402'>0.81398E+02</wgt>
<wgt id='3403'>0.81962E+02</wgt>
<wgt id='3404'>0.79981E+02</wgt>
<wgt id='3405'>0.80633E+02</wgt>
<wgt id='3406'>0.83671E+02</wgt>
<wgt id='3407'>0.82442E+02</wgt>
<wgt id='3408'>0.80163E+02</wgt>
<wgt id='3409'>0.82264E+02</wgt>
<wgt id='3410'>0.80755E+02</wgt>
<wgt id='3411'>0.81973E+02</wgt>
<wgt id='3412'>0.81369E+02</wgt>
<wgt id='3413'>0.82065E+02</wgt>
<wgt id='3414'>0.81538E+02</wgt>
<wgt id='3415'>0.80837E+02</wgt>
<wgt id='3416'>0.82318E+02</wgt>
<wgt id='3417'>0.82106E+02</wgt>
<wgt id='3418'>0.81810E+02</wgt>
<wgt id='3419'>0.81674E+02</wgt>
<wgt id='3420'>0.80631E+02</wgt>
<wgt id='3421'>0.81869E+02</wgt>
<wgt id='3422'>0.81797E+02</wgt>
<wgt id='3423'>0.81091E+02</wgt>
<wgt id='3424'>0.80875E+02</wgt>
<wgt id='3425'>0.81743E+02</wgt>
<wgt id='3426'>0.82561E+02</wgt>
<wgt id='3427'>0.81394E+02</wgt>
<wgt id='3428'>0.82361E+02</wgt>
<wgt id='3429'>0.80230E+02</wgt>
<wgt id='3430'>0.82271E+02</wgt>
<wgt id='3431'>0.80622E+02</wgt>
<wgt id='3432'>0.80401E+02</wgt>
<wgt id='3433'>0.81433E+02</wgt>
<wgt id='3434'>0.80726E+02</wgt>
<wgt id='3435'>0.80914E+02</wgt>
<wgt id='3436'>0.83158E+02</wgt>
<wgt id='3437'>0.80433E+02</wgt>
<wgt id='3438'>0.80760E+02</wgt>
<wgt id='3439'>0.80542E+02</wgt>
<wgt id='3440'>0.80387E+02</wgt>
<wgt id='3441'>0.80963E+02</wgt>
<wgt id='3442'>0.80308E+02</wgt>
<wgt id='3443'>0.80293E+02</wgt>
<wgt id='3444'>0.81622E+02</wgt>
<wgt id='3445'>0.81480E+02</wgt>
<wgt id='3446'>0.80141E+02</wgt>
<wgt id='3447'>0.83023E+02</wgt>
<wgt id='3448'>0.83039E+02</wgt>
<wgt id='3449'>0.81560E+02</wgt>
<wgt id='3450'>0.81411E+02</wgt>
<wgt id='3451'>0.81566E+02</wgt>
<wgt id='3452'>0.81264E+02</wgt>
<wgt id='3453'>0.82188E+02</wgt>
<wgt id='3454'>0.81544E+02</wgt>
<wgt id='3455'>0.81316E+02</wgt>
<wgt id='3456'>0.80505E+02</wgt>
<wgt id='3457'>0.80902E+02</wgt>
<wgt id='3458'>0.80412E+02</wgt>
<wgt id='3459'>0.81590E+02</wgt>
<wgt id='3460'>0.81830E+02</wgt>
<wgt id='3461'>0.80840E+02</wgt>
<wgt id='3462'>0.80200E+02</wgt>
<wgt id='3463'>0.81085E+02</wgt>
<wgt id='3464'>0.80336E+02</wgt>
<wgt id='3465'>0.80905E+02</wgt>
<wgt id='3466'>0.80990E+02</wgt>
<wgt id='3467'>0.81416E+02</wgt>
<wgt id='3468'>0.81069E+02</wgt>
<wgt id='3469'>0.81856E+02</wgt>
<wgt id='3470'>0.81063E+02</wgt>
<wgt id='3471'>0.80934E+02</wgt>
<wgt id='3472'>0.81753E+02</wgt>
<wgt id='3473'>0.80655E+02</wgt>
<wgt id='3474'>0.80994E+02</wgt>
<wgt id='3475'>0.81559E+02</wgt>
<wgt id='3476'>0.81964E+02</wgt>
<wgt id='3477'>0.81894E+02</wgt>
<wgt id='3478'>0.80886E+02</wgt>
<wgt id='3479'>0.82755E+02</wgt>
<wgt id='3480'>0.81569E+02</wgt>
<wgt id='3481'>0.82321E+02</wgt>
<wgt id='3482'>0.80169E+02</wgt>
<wgt id='3483'>0.82110E+02</wgt>
<wgt id='3484'>0.81167E+02</wgt>
<wgt id='3485'>0.81603E+02</wgt>
<wgt id='3486'>0.81539E+02</wgt>
<wgt id='3487'>0.81699E+02</wgt>
<wgt id='3488'>0.80779E+02</wgt>
<wgt id='3489'>0.81049E+02</wgt>
<wgt id='3490'>0.78738E+02</wgt>
<wgt id='3491'>0.82728E+02</wgt>
<wgt id='3492'>0.82040E+02</wgt>
<wgt id='3493'>0.80306E+02</wgt>
<wgt id='3494'>0.80122E+02</wgt>
<wgt id='3495'>0.81684E+02</wgt>
<wgt id='3496'>0.81391E+02</wgt>
<wgt id='3497'>0.81868E+02</wgt>
<wgt id='3498'>0.82047E+02</wgt>
<wgt id='3499'>0.83035E+02</wgt>
<wgt id='3500'>0.82438E+02</wgt>
</rwgt>
</event>
<event>
     13 322200  8.11039E+01  1.33714E+02 -1.00000E+00  1.16958E-01
      21    -1     0     0   512   513  0.000000000E+00  0.000000000E+00  1.244127200E+02  1.244127200E+02  0.000000000E+00  0.00000E+00  9.000E+00
       2    -1     0     0   502     0  0.000000000E+00  0.000000000E+00 -7.809465601E+02  7.809465601E+02  0.000000000E+00  0.00000E+00  9.000E+00
       6     2     1     2   502     0 -5.074724889E+01  3.252468546E+01 -7.220964665E+01  1.965107297E+02  1.725372289E+02  0.00000E+00  9.000E+00
      -6     2     1     2     0   513  5.829925634E+01 -1.660255403E+02 -2.602032272E+02  3.582291613E+02  1.722182606E+02  0.00000E+00  9.000E+00
       2     1     1     2   512     0 -7.552007451E+00  1.335008549E+02 -3.241209663E+02  3.506193891E+02  2.100000000E-01  0.00000E+00  9.000E+00
      24     2     3     3     0     0 -6.179185996E+01  3.459228127E+01  1.062083295E+01  1.127685638E+02  8.711536613E+01  0.00000E+00  9.000E+00
       5     1     3     3   502     0  1.104461107E+01 -2.067595813E+00 -8.283047960E+01  8.374216583E+01  5.060000000E+00  0.00000E+00 -1.000E+00
     -24     2     4     4     0     0 -1.406623059E+01 -9.196441295E+01 -2.083535121E+02  2.423162162E+02  8.155152090E+01  0.00000E+00  9.000E+00
      -5     1     4     4     0   513  7.236548693E+01 -7.406112737E+01 -5.184971509E+01  1.159129451E+02  5.060000000E+00  0.00000E+00  1.000E+00
     -13     1     6     6     0     0 -2.112621564E+01  2.701271193E+01 -3.648930630E+01  5.007478647E+01  1.057000000E-01  0.00000E+00  1.000E+00
      14     1     6     6     0     0 -4.066564432E+01  7.579569345E+00  4.711013926E+01  6.269377736E+01  0.000000000E+00  0.00000E+00 -1.000E+00
      11     1     8     8     0     0 -6.020932219E+00 -9.390640703E+01 -1.149807836E+02  1.485774058E+02  5.100000000E-04  0.00000E+00 -1.000E+00
     -12     1     8     8     0     0 -8.045298375E+00  1.941994073E+00 -9.337272844E+01  9.373881044E+01  0.000000000E+00  0.00000E+00  1.000E+00
#rwgt            2          36   7.7545229520557122               10       28031           0
<rwgt>
<wgt id='1001'>0.81104E+02</wgt>
<wgt id='1002'>0.79023E+02</wgt>
<wgt id='1003'>0.82882E+02</wgt>
<wgt id='1004'>0.62361E+02</wgt>
<wgt id='1005'>0.60761E+02</wgt>
<wgt id='1006'>0.63728E+02</wgt>
<wgt id='1007'>0.10832E+03</wgt>
<wgt id='1008'>0.10554E+03</wgt>
<wgt id='1009'>0.11069E+03</wgt>
<wgt id='2000'>0.81104E+02</wgt>
<wgt id='2001'>0.81215E+02</wgt>
<wgt id='2002'>0.80975E+02</wgt>
<wgt id='2003'>0.81133E+02</wgt>
<wgt id='2004'>0.81105E+02</wgt>
<wgt id='2005'>0.81456E+02</wgt>
<wgt id='2006'>0.81047E+02</wgt>
<wgt id='2007'>0.81345E+02</wgt>
<wgt id='2008'>0.81322E+02</wgt>
<wgt id='2009'>0.81171E+02</wgt>
<wgt id='2010'>0.81007E+02</wgt>
<wgt id='2011'>0.80770E+02</wgt>
<wgt id='2012'>0.81113E+02</wgt>
<wgt id='2013'>0.81006E+02</wgt>
<wgt id='2014'>0.81202E+02</wgt>
<wgt id='2015'>0.81123E+02</wgt>
<wgt id='2016'>0.81069E+02</wgt>
<wgt id='2017'>0.81051E+02</wgt>
<wgt id='2018'>0.81256E+02</wgt>
<wgt id='2019'>0.81295E+02</wgt>
<wgt id='2020'>0.80826E+02</wgt>
<wgt id='2021'>0.81186E+02</wgt>
<wgt id='2022'>0.81265E+02</wgt>
<wgt id='2023'>0.81155E+02</wgt>
<wgt id='2024'>0.81197E+02</wgt>
<wgt id='2025'>0.81044E+02</wgt>
<wgt id='2026'>0.81063E+02</wgt>
<wgt id='2027'>0.81009E+02</wgt>
<wgt id='2028'>0.81223E+02</wgt>
<wgt id='2029'>0.81396E+02</wgt>
<wgt id='2030'>0.81086E+02</wgt>
<wgt id='2031'>0.81499E+02</wgt>
<wgt id='2032'>0.81118E+02</wgt>
<wgt id='2033'>0.81228E+02</wgt>
<wgt id='2034'>0.81259E+02</wgt>
<wgt id='2035'>0.81060E+02</wgt>
<wgt id='2036'>0.80947E+02</wgt>
<wgt id='2037'>0.81275E+02</wgt>
<wgt id='2038'>0.81054E+02</wgt>
<wgt id='2039'>0.81091E+02</wgt>
<wgt id='2040'>0.81284E+02</wgt>
<wgt id='2041'>0.81385E+02</wgt>
<wgt id='2042'>0.81201E+02</wgt>
<wgt id='2043'>0.81079E+02</wgt>
<wgt id='2044'>0.80988E+02</wgt>
<wgt id='2045'>0.81078E+02</wgt>
<wgt id='2046'>0.81043E+02</wgt>
<wgt id='2047'>0.80995E+02</wgt>
<wgt id='2048'>0.80889E+02</wgt>
<wgt id='2049'>0.81172E+02</wgt>
<wgt id='2050'>0.80985E+02</wgt>
<wgt id='2051'>0.81077E+02</wgt>
<wgt id='2052'>0.81190E+02</wgt>
<wgt id='2053'>0.81139E+02</wgt>
<wgt id='2054'>0.81190E+02</wgt>
<wgt id='2055'>0.81160E+02</wgt>
<wgt id='2056'>0.81159E+02</wgt>
<wgt id='2057'>0.81215E+02</wgt>
<wgt id='2058'>0.81122E+02</wgt>
<wgt id='2059'>0.81185E+02</wgt>
<wgt id='2060'>0.81069E+02</wgt>
<wgt id='2061'>0.81144E+02</wgt>
<wgt id='2062'>0.81088E+02</wgt>
<wgt id='2063'>0.81043E+02</wgt>
<wgt id='2064'>0.81056E+02</wgt>
<wgt id='2065'>0.81141E+02</wgt>
<wgt id='2066'>0.81096E+02</wgt>
<wgt id='2067'>0.81119E+02</wgt>
<wgt id='2068'>0.81081E+02</wgt>
<wgt id='2069'>0.81136E+02</wgt>
<wgt id='2070'>0.81064E+02</wgt>
<wgt id='2071'>0.81088E+02</wgt>
<wgt id='2072'>0.81143E+02</wgt>
<wgt id='2073'>0.81038E+02</wgt>
<wgt id='2074'>0.81113E+02</wgt>
<wgt id='2075'>0.81069E+02</wgt>
<wgt id='2076'>0.81136E+02</wgt>
<wgt id='2077'>0.81200E+02</wgt>
<wgt id='2078'>0.81129E+02</wgt>
<wgt id='2079'>0.81112E+02</wgt>
<wgt id='2080'>0.81133E+02</wgt>
<wgt id='2081'>0.81044E+02</wgt>
<wgt id='2082'>0.81101E+02</wgt>
<wgt id='2083'>0.81098E+02</wgt>
<wgt id='2084'>0.81139E+02</wgt>
<wgt id='2085'>0.81120E+02</wgt>
<wgt id='2086'>0.81074E+02</wgt>
<wgt id='2087'>0.81064E+02</wgt>
<wgt id='2088'>0.81060E+02</wgt>
<wgt id='2089'>0.81098E+02</wgt>
<wgt id='2090'>0.81128E+02</wgt>
<wgt id='2091'>0.81110E+02</wgt>
<wgt id='2092'>0.81145E+02</wgt>
<wgt id='2093'>0.81115E+02</wgt>
<wgt id='2094'>0.81095E+02</wgt>
<wgt id='2095'>0.81145E+02</wgt>
<wgt id='2096'>0.81090E+02</wgt>
<wgt id='2097'>0.81108E+02</wgt>
<wgt id='2098'>0.81114E+02</wgt>
<wgt id='2099'>0.81122E+02</wgt>
<wgt id='2100'>0.81104E+02</wgt>
<wgt id='2101'>0.77665E+02</wgt>
<wgt id='2102'>0.84293E+02</wgt>
<wgt id='2200'>0.81094E+02</wgt>
<wgt id='2201'>0.65604E+02</wgt>
<wgt id='2202'>0.68451E+02</wgt>
<wgt id='2203'>0.71878E+02</wgt>
<wgt id='2204'>0.75083E+02</wgt>
<wgt id='2205'>0.79760E+02</wgt>
<wgt id='2206'>0.82743E+02</wgt>
<wgt id='2207'>0.87433E+02</wgt>
<wgt id='2208'>0.90641E+02</wgt>
<wgt id='2300'>0.83645E+02</wgt>
<wgt id='2301'>0.83796E+02</wgt>
<wgt id='2302'>0.83523E+02</wgt>
<wgt id='2303'>0.83826E+02</wgt>
<wgt id='2304'>0.83613E+02</wgt>
<wgt id='2305'>0.83903E+02</wgt>
<wgt id='2306'>0.83784E+02</wgt>
<wgt id='2307'>0.83886E+02</wgt>
<wgt id='2308'>0.83514E+02</wgt>
<wgt id='2309'>0.83852E+02</wgt>
<wgt id='2310'>0.83583E+02</wgt>
<wgt id='2311'>0.83613E+02</wgt>
<wgt id='2312'>0.83722E+02</wgt>
<wgt id='2313'>0.83363E+02</wgt>
<wgt id='2314'>0.83943E+02</wgt>
<wgt id='2315'>0.83640E+02</wgt>
<wgt id='2316'>0.83542E+02</wgt>
<wgt id='2317'>0.83865E+02</wgt>
<wgt id='2318'>0.83660E+02</wgt>
<wgt id='2319'>0.83343E+02</wgt>
<wgt id='2320'>0.83353E+02</wgt>
<wgt id='2321'>0.83577E+02</wgt>
<wgt id='2322'>0.83733E+02</wgt>
<wgt id='2323'>0.83820E+02</wgt>
<wgt id='2324'>0.83574E+02</wgt>
<wgt id='2325'>0.83438E+02</wgt>
<wgt id='2326'>0.83637E+02</wgt>
<wgt id='2327'>0.83579E+02</wgt>
<wgt id='2328'>0.83768E+02</wgt>
<wgt id='2329'>0.83937E+02</wgt>
<wgt id='2330'>0.83026E+02</wgt>
<wgt id='2331'>0.83263E+02</wgt>
<wgt id='2332'>0.83796E+02</wgt>
<wgt id='2333'>0.83725E+02</wgt>
<wgt id='2334'>0.83612E+02</wgt>
<wgt id='2335'>0.83801E+02</wgt>
<wgt id='2336'>0.83749E+02</wgt>
<wgt id='2337'>0.83450E+02</wgt>
<wgt id='2338'>0.83697E+02</wgt>
<wgt id='2339'>0.83703E+02</wgt>
<wgt id='2340'>0.83582E+02</wgt>
<wgt id='2341'>0.83724E+02</wgt>
<wgt id='2342'>0.83703E+02</wgt>
<wgt id='2343'>0.83514E+02</wgt>
<wgt id='2344'>0.83682E+02</wgt>
<wgt id='2345'>0.83726E+02</wgt>
<wgt id='2346'>0.83621E+02</wgt>
<wgt id='2347'>0.83634E+02</wgt>
<wgt id='2348'>0.83768E+02</wgt>
<wgt id='2349'>0.83610E+02</wgt>
<wgt id='2350'>0.83566E+02</wgt>
<wgt id='2351'>0.83695E+02</wgt>
<wgt id='2352'>0.83695E+02</wgt>
<wgt id='2353'>0.83532E+02</wgt>
<wgt id='2354'>0.83612E+02</wgt>
<wgt id='2355'>0.83614E+02</wgt>
<wgt id='2356'>0.83551E+02</wgt>
<wgt id='2357'>0.83700E+02</wgt>
<wgt id='2358'>0.83563E+02</wgt>
<wgt id='2359'>0.83672E+02</wgt>
<wgt id='2360'>0.83624E+02</wgt>
<wgt id='2361'>0.83637E+02</wgt>
<wgt id='2362'>0.83542E+02</wgt>
<wgt id='2363'>0.83700E+02</wgt>
<wgt id='2364'>0.83568E+02</wgt>
<wgt id='2365'>0.83684E+02</wgt>
<wgt id='2366'>0.83644E+02</wgt>
<wgt id='2367'>0.83504E+02</wgt>
<wgt id='2368'>0.83738E+02</wgt>
<wgt id='2369'>0.83574E+02</wgt>
<wgt id='2370'>0.83611E+02</wgt>
<wgt id='2371'>0.83611E+02</wgt>
<wgt id='2372'>0.83649E+02</wgt>
<wgt id='2373'>0.83635E+02</wgt>
<wgt id='2374'>0.83772E+02</wgt>
<wgt id='2375'>0.83596E+02</wgt>
<wgt id='2376'>0.83679E+02</wgt>
<wgt id='2377'>0.83626E+02</wgt>
<wgt id='2378'>0.83667E+02</wgt>
<wgt id='2379'>0.83626E+02</wgt>
<wgt id='2380'>0.83655E+02</wgt>
<wgt id='2381'>0.83739E+02</wgt>
<wgt id='2382'>0.83595E+02</wgt>
<wgt id='2383'>0.83674E+02</wgt>
<wgt id='2384'>0.83581E+02</wgt>
<wgt id='2385'>0.83619E+02</wgt>
<wgt id='2386'>0.83646E+02</wgt>
<wgt id='2387'>0.83677E+02</wgt>
<wgt id='2388'>0.83598E+02</wgt>
<wgt id='2389'>0.83614E+02</wgt>
<wgt id='2390'>0.83648E+02</wgt>
<wgt id='2391'>0.83682E+02</wgt>
<wgt id='2392'>0.83664E+02</wgt>
<wgt id='2393'>0.83627E+02</wgt>
<wgt id='2394'>0.83661E+02</wgt>
<wgt id='2395'>0.83674E+02</wgt>
<wgt id='2396'>0.83571E+02</wgt>
<wgt id='2397'>0.83639E+02</wgt>
<wgt id='2398'>0.83673E+02</wgt>
<wgt id='2399'>0.83606E+02</wgt>
<wgt id='2400'>0.83641E+02</wgt>
<wgt id='2401'>0.80427E+02</wgt>
<wgt id='2402'>0.87115E+02</wgt>
<wgt id='2500'>0.80061E+02</wgt>
<wgt id='2501'>0.82895E+02</wgt>
<wgt id='2600'>0.80161E+02</wgt>
<wgt id='2601'>0.80150E+02</wgt>
<wgt id='2602'>0.80124E+02</wgt>
<wgt id='2603'>0.80133E+02</wgt>
<wgt id='2604'>0.80220E+02</wgt>
<wgt id='2605'>0.80192E+02</wgt>
<wgt id='2606'>0.79884E+02</wgt>
<wgt id='2607'>0.80250E+02</wgt>
<wgt id='2608'>0.79948E+02</wgt>
<wgt id='2609'>0.80168E+02</wgt>
<wgt id='2610'>0.80128E+02</wgt>
<wgt id='2611'>0.80204E+02</wgt>
<wgt id='2612'>0.80273E+02</wgt>
<wgt id='2613'>0.79988E+02</wgt>
<wgt id='2614'>0.80148E+02</wgt>
<wgt id='2615'>0.80136E+02</wgt>
<wgt id='2616'>0.79972E+02</wgt>
<wgt id='2617'>0.80302E+02</wgt>
<wgt id='2618'>0.80097E+02</wgt>
<wgt id='2619'>0.79866E+02</wgt>
<wgt id='2620'>0.80146E+02</wgt>
<wgt id='2621'>0.80114E+02</wgt>
<wgt id='2622'>0.80163E+02</wgt>
<wgt id='2623'>0.80160E+02</wgt>
<wgt id='2624'>0.80082E+02</wgt>
<wgt id='2625'>0.80127E+02</wgt>
<wgt id='2626'>0.80270E+02</wgt>
<wgt id='2627'>0.80197E+02</wgt>
<wgt id='2628'>0.80139E+02</wgt>
<wgt id='2629'>0.80054E+02</wgt>
<wgt id='2630'>0.80102E+02</wgt>
<wgt id='2631'>0.80138E+02</wgt>
<wgt id='2632'>0.80104E+02</wgt>
<wgt id='2633'>0.80116E+02</wgt>
<wgt id='2634'>0.80137E+02</wgt>
<wgt id='2635'>0.80160E+02</wgt>
<wgt id='2636'>0.80136E+02</wgt>
<wgt id='2637'>0.80191E+02</wgt>
<wgt id='2638'>0.80126E+02</wgt>
<wgt id='2639'>0.80220E+02</wgt>
<wgt id='2640'>0.80176E+02</wgt>
<wgt id='2641'>0.80178E+02</wgt>
<wgt id='2642'>0.80152E+02</wgt>
<wgt id='2643'>0.80145E+02</wgt>
<wgt id='2644'>0.80140E+02</wgt>
<wgt id='2645'>0.80192E+02</wgt>
<wgt id='2646'>0.80143E+02</wgt>
<wgt id='2647'>0.80164E+02</wgt>
<wgt id='2648'>0.80087E+02</wgt>
<wgt id='2649'>0.80201E+02</wgt>
<wgt id='2650'>0.80136E+02</wgt>
<wgt id='2651'>0.78434E+02</wgt>
<wgt id='2652'>0.81843E+02</wgt>
<wgt id='2700'>0.76692E+02</wgt>
<wgt id='2701'>0.78434E+02</wgt>
<wgt id='2702'>0.79374E+02</wgt>
<wgt id='2703'>0.80928E+02</wgt>
<wgt id='2704'>0.81843E+02</wgt>
<wgt id='2705'>0.83582E+02</wgt>
<wgt id='2800'>0.83122E+02</wgt>
<wgt id='4000'>0.80587E+02</wgt>
<wgt id='4001'>0.81560E+02</wgt>
<wgt id='4002'>0.81527E+02</wgt>
<wgt id='4003'>0.81684E+02</wgt>
<wgt id='4004'>0.79485E+02</wgt>
<wgt id='4005'>0.80725E+02</wgt>
<wgt id='4006'>0.80551E+02</wgt>
<wgt id='4007'>0.80600E+02</wgt>
<wgt id='4008'>0.80522E+02</wgt>
<wgt id='4009'>0.80559E+02</wgt>
<wgt id='4010'>0.80657E+02</wgt>
<wgt id='4011'>0.80943E+02</wgt>
<wgt id='4012'>0.80407E+02</wgt>
<wgt id='4013'>0.80041E+02</wgt>
<wgt id='4014'>0.81218E+02</wgt>
<wgt id='4015'>0.80419E+02</wgt>
<wgt id='4016'>0.80465E+02</wgt>
<wgt id='4017'>0.81155E+02</wgt>
<wgt id='4018'>0.79989E+02</wgt>
<wgt id='4019'>0.80678E+02</wgt>
<wgt id='4020'>0.80148E+02</wgt>
<wgt id='4021'>0.80323E+02</wgt>
<wgt id='4022'>0.81027E+02</wgt>
<wgt id='4023'>0.80171E+02</wgt>
<wgt id='4024'>0.80876E+02</wgt>
<wgt id='4025'>0.80649E+02</wgt>
<wgt id='4026'>0.80416E+02</wgt>
<wgt id='4027'>0.80150E+02</wgt>
<wgt id='4028'>0.80930E+02</wgt>
<wgt id='4029'>0.79742E+02</wgt>
<wgt id='4030'>0.80995E+02</wgt>
<wgt id='4031'>0.80746E+02</wgt>
<wgt id='4032'>0.79860E+02</wgt>
<wgt id='4033'>0.79934E+02</wgt>
<wgt id='4034'>0.81223E+02</wgt>
<wgt id='4035'>0.80797E+02</wgt>
<wgt id='4036'>0.80376E+02</wgt>
<wgt id='4037'>0.80513E+02</wgt>
<wgt id='4038'>0.80460E+02</wgt>
<wgt id='4039'>0.81590E+02</wgt>
<wgt id='4040'>0.79468E+02</wgt>
<wgt id='4041'>0.80828E+02</wgt>
<wgt id='4042'>0.80254E+02</wgt>
<wgt id='4043'>0.79526E+02</wgt>
<wgt id='4044'>0.81314E+02</wgt>
<wgt id='4045'>0.81059E+02</wgt>
<wgt id='4046'>0.80327E+02</wgt>
<wgt id='4047'>0.80479E+02</wgt>
<wgt id='4048'>0.80401E+02</wgt>
<wgt id='4049'>0.79855E+02</wgt>
<wgt id='4050'>0.81204E+02</wgt>
<wgt id='4051'>0.81431E+02</wgt>
<wgt id='4052'>0.79623E+02</wgt>
<wgt id='4053'>0.81208E+02</wgt>
<wgt id='4054'>0.79935E+02</wgt>
<wgt id='4055'>0.80726E+02</wgt>
<wgt id='4056'>0.80310E+02</wgt>
<wgt id='4057'>0.80215E+02</wgt>
<wgt id='4058'>0.80859E+02</wgt>
<wgt id='4100'>0.81222E+02</wgt>
<wgt id='4101'>0.80929E+02</wgt>
<wgt id='4102'>0.80216E+02</wgt>
<wgt id='4103'>0.79825E+02</wgt>
<wgt id='4200'>0.79206E+02</wgt>
<wgt id='4201'>0.80189E+02</wgt>
<wgt id='4202'>0.79630E+02</wgt>
<wgt id='4203'>0.79820E+02</wgt>
<wgt id='4204'>0.78939E+02</wgt>
<wgt id='4205'>0.79358E+02</wgt>
<wgt id='4206'>0.78950E+02</wgt>
<wgt id='4207'>0.78706E+02</wgt>
<wgt id='4208'>0.79403E+02</wgt>
<wgt id='4209'>0.79085E+02</wgt>
<wgt id='4210'>0.79242E+02</wgt>
<wgt id='4211'>0.79282E+02</wgt>
<wgt id='4212'>0.79168E+02</wgt>
<wgt id='4213'>0.79654E+02</wgt>
<wgt id='4214'>0.78492E+02</wgt>
<wgt id='4215'>0.79246E+02</wgt>
<wgt id='4216'>0.79378E+02</wgt>
<wgt id='4217'>0.79482E+02</wgt>
<wgt id='4218'>0.79067E+02</wgt>
<wgt id='4219'>0.78653E+02</wgt>
<wgt id='4220'>0.79589E+02</wgt>
<wgt id='4221'>0.78997E+02</wgt>
<wgt id='4222'>0.79676E+02</wgt>
<wgt id='4223'>0.79487E+02</wgt>
<wgt id='4224'>0.78975E+02</wgt>
<wgt id='4225'>0.78788E+02</wgt>
<wgt id='4226'>0.79417E+02</wgt>
<wgt id='4227'>0.78827E+02</wgt>
<wgt id='4228'>0.79501E+02</wgt>
<wgt id='4229'>0.79200E+02</wgt>
<wgt id='4230'>0.79091E+02</wgt>
<wgt id='4231'>0.79809E+02</wgt>
<wgt id='4232'>0.78324E+02</wgt>
<wgt id='4233'>0.78812E+02</wgt>
<wgt id='4234'>0.79658E+02</wgt>
<wgt id='4235'>0.79253E+02</wgt>
<wgt id='4236'>0.79206E+02</wgt>
<wgt id='4237'>0.79068E+02</wgt>
<wgt id='4238'>0.79297E+02</wgt>
<wgt id='4239'>0.80028E+02</wgt>
<wgt id='4240'>0.78066E+02</wgt>
<wgt id='4241'>0.78616E+02</wgt>
<wgt id='4242'>0.79890E+02</wgt>
<wgt id='4243'>0.79067E+02</wgt>
<wgt id='4244'>0.79472E+02</wgt>
<wgt id='4245'>0.78102E+02</wgt>
<wgt id='4246'>0.80343E+02</wgt>
<wgt id='4247'>0.79179E+02</wgt>
<wgt id='4248'>0.79255E+02</wgt>
<wgt id='4249'>0.79940E+02</wgt>
<wgt id='4250'>0.78326E+02</wgt>
<wgt id='4251'>0.78397E+02</wgt>
<wgt id='4252'>0.79715E+02</wgt>
<wgt id='4253'>0.78830E+02</wgt>
<wgt id='4254'>0.79431E+02</wgt>
<wgt id='4255'>0.79286E+02</wgt>
<wgt id='4256'>0.79021E+02</wgt>
<wgt id='4257'>0.78442E+02</wgt>
<wgt id='4258'>0.79432E+02</wgt>
<wgt id='4300'>0.79986E+02</wgt>
<wgt id='4301'>0.79445E+02</wgt>
<wgt id='5000'>0.79730E+02</wgt>
<wgt id='5001'>0.79715E+02</wgt>
<wgt id='5002'>0.79748E+02</wgt>
<wgt id='5003'>0.79739E+02</wgt>
<wgt id='5004'>0.79721E+02</wgt>
<wgt id='5005'>0.79747E+02</wgt>
<wgt id='5006'>0.79701E+02</wgt>
<wgt id='5007'>0.79722E+02</wgt>
<wgt id='5008'>0.79736E+02</wgt>
<wgt id='5009'>0.79789E+02</wgt>
<wgt id='5010'>0.79669E+02</wgt>
<wgt id='5011'>0.79787E+02</wgt>
<wgt id='5012'>0.79675E+02</wgt>
<wgt id='5013'>0.79918E+02</wgt>
<wgt id='5014'>0.79596E+02</wgt>
<wgt id='5015'>0.79713E+02</wgt>
<wgt id='5016'>0.79713E+02</wgt>
<wgt id='5017'>0.79901E+02</wgt>
<wgt id='5018'>0.79613E+02</wgt>
<wgt id='5019'>0.79607E+02</wgt>
<wgt id='5020'>0.79897E+02</wgt>
<wgt id='5021'>0.79742E+02</wgt>
<wgt id='5022'>0.79712E+02</wgt>
<wgt id='5023'>0.79662E+02</wgt>
<wgt id='5024'>0.79893E+02</wgt>
<wgt id='5025'>0.79810E+02</wgt>
<wgt id='5026'>0.79632E+02</wgt>
<wgt id='5027'>0.79724E+02</wgt>
<wgt id='5028'>0.79745E+02</wgt>
<wgt id='5029'>0.79264E+02</wgt>
<wgt id='5030'>0.79991E+02</wgt>
<wgt id='5031'>0.79758E+02</wgt>
<wgt id='5032'>0.79646E+02</wgt>
<wgt id='5033'>0.79669E+02</wgt>
<wgt id='5034'>0.79795E+02</wgt>
<wgt id='5035'>0.79936E+02</wgt>
<wgt id='5036'>0.79444E+02</wgt>
<wgt id='5037'>0.80095E+02</wgt>
<wgt id='5038'>0.79526E+02</wgt>
<wgt id='5039'>0.79682E+02</wgt>
<wgt id='5040'>0.79855E+02</wgt>
<wgt id='5041'>0.80043E+02</wgt>
<wgt id='5042'>0.79416E+02</wgt>
<wgt id='5043'>0.79276E+02</wgt>
<wgt id='5044'>0.80122E+02</wgt>
<wgt id='5045'>0.79553E+02</wgt>
<wgt id='5046'>0.80039E+02</wgt>
<wgt id='5047'>0.79726E+02</wgt>
<wgt id='5048'>0.79751E+02</wgt>
<wgt id='5049'>0.79770E+02</wgt>
<wgt id='5050'>0.79659E+02</wgt>
<wgt id='5051'>0.79800E+02</wgt>
<wgt id='5052'>0.79652E+02</wgt>
<wgt id='5053'>0.79487E+02</wgt>
<wgt id='5054'>0.79841E+02</wgt>
<wgt id='5055'>0.79716E+02</wgt>
<wgt id='5056'>0.79464E+02</wgt>
<wgt id='5057'>0.79635E+02</wgt>
<wgt id='5058'>0.79773E+02</wgt>
<wgt id='5059'>0.79833E+02</wgt>
<wgt id='5060'>0.79673E+02</wgt>
<wgt id='5061'>0.79736E+02</wgt>
<wgt id='5062'>0.79664E+02</wgt>
<wgt id='5063'>0.79747E+02</wgt>
<wgt id='5064'>0.79761E+02</wgt>
<wgt id='5100'>0.79730E+02</wgt>
<wgt id='5101'>0.79757E+02</wgt>
<wgt id='6000'>0.79873E+02</wgt>
<wgt id='6001'>0.79711E+02</wgt>
<wgt id='6002'>0.79653E+02</wgt>
<wgt id='6003'>0.79799E+02</wgt>
<wgt id='6004'>0.79842E+02</wgt>
<wgt id='6005'>0.79895E+02</wgt>
<wgt id='6006'>0.79395E+02</wgt>
<wgt id='6007'>0.79812E+02</wgt>
<wgt id='6008'>0.79015E+02</wgt>
<wgt id='6009'>0.80070E+02</wgt>
<wgt id='6010'>0.79675E+02</wgt>
<wgt id='6011'>0.79920E+02</wgt>
<wgt id='6012'>0.80005E+02</wgt>
<wgt id='6013'>0.79880E+02</wgt>
<wgt id='6014'>0.79823E+02</wgt>
<wgt id='6015'>0.79646E+02</wgt>
<wgt id='6016'>0.80239E+02</wgt>
<wgt id='6017'>0.79838E+02</wgt>
<wgt id='6018'>0.80289E+02</wgt>
<wgt id='6019'>0.79939E+02</wgt>
<wgt id='6020'>0.79909E+02</wgt>
<wgt id='6021'>0.79873E+02</wgt>
<wgt id='6022'>0.79733E+02</wgt>
<wgt id='6023'>0.79908E+02</wgt>
<wgt id='6024'>0.79904E+02</wgt>
<wgt id='6025'>0.79249E+02</wgt>
<wgt id='6026'>0.79895E+02</wgt>
<wgt id='6027'>0.79845E+02</wgt>
<wgt id='6028'>0.79813E+02</wgt>
<wgt id='6029'>0.79951E+02</wgt>
<wgt id='6030'>0.80105E+02</wgt>
<wgt id='6031'>0.79804E+02</wgt>
<wgt id='6032'>0.79841E+02</wgt>
<wgt id='6033'>0.79755E+02</wgt>
<wgt id='6034'>0.79967E+02</wgt>
<wgt id='6035'>0.79911E+02</wgt>
<wgt id='6036'>0.80042E+02</wgt>
<wgt id='6037'>0.79782E+02</wgt>
<wgt id='6038'>0.79837E+02</wgt>
<wgt id='6039'>0.79948E+02</wgt>
<wgt id='6040'>0.79930E+02</wgt>
<wgt id='6041'>0.78338E+02</wgt>
<wgt id='6042'>0.81399E+02</wgt>
<wgt id='7000'>0.84290E+02</wgt>
<wgt id='7001'>0.84054E+02</wgt>
<wgt id='7002'>0.84110E+02</wgt>
<wgt id='7003'>0.84051E+02</wgt>
<wgt id='7004'>0.84114E+02</wgt>
<wgt id='7005'>0.84018E+02</wgt>
<wgt id='7006'>0.84146E+02</wgt>
<wgt id='7007'>0.84141E+02</wgt>
<wgt id='7008'>0.84027E+02</wgt>
<wgt id='7009'>0.84210E+02</wgt>
<wgt id='7010'>0.83958E+02</wgt>
<wgt id='7011'>0.84353E+02</wgt>
<wgt id='7012'>0.83812E+02</wgt>
<wgt id='7013'>0.83731E+02</wgt>
<wgt id='7014'>0.84429E+02</wgt>
<wgt id='7015'>0.83887E+02</wgt>
<wgt id='7016'>0.84175E+02</wgt>
<wgt id='7017'>0.84278E+02</wgt>
<wgt id='7018'>0.83884E+02</wgt>
<wgt id='7019'>0.84047E+02</wgt>
<wgt id='7020'>0.84121E+02</wgt>
<wgt id='7021'>0.83604E+02</wgt>
<wgt id='7022'>0.84561E+02</wgt>
<wgt id='7023'>0.84361E+02</wgt>
<wgt id='7024'>0.83815E+02</wgt>
<wgt id='7025'>0.83521E+02</wgt>
<wgt id='7026'>0.84517E+02</wgt>
<wgt id='7027'>0.83643E+02</wgt>
<wgt id='7028'>0.84309E+02</wgt>
<wgt id='8000'>0.82268E+02</wgt>
<wgt id='8001'>0.82252E+02</wgt>
<wgt id='8002'>0.82269E+02</wgt>
<wgt id='8003'>0.82295E+02</wgt>
<wgt id='8004'>0.82267E+02</wgt>
<wgt id='8005'>0.82208E+02</wgt>
<wgt id='8006'>0.82283E+02</wgt>
<wgt id='8007'>0.82326E+02</wgt>
<wgt id='8008'>0.82175E+02</wgt>
<wgt id='8009'>0.82333E+02</wgt>
<wgt id='8010'>0.82268E+02</wgt>
<wgt id='8011'>0.82127E+02</wgt>
<wgt id='8012'>0.82268E+02</wgt>
<wgt id='8013'>0.82197E+02</wgt>
<wgt id='8014'>0.82249E+02</wgt>
<wgt id='8015'>0.82226E+02</wgt>
<wgt id='8016'>0.82394E+02</wgt>
<wgt id='8017'>0.82149E+02</wgt>
<wgt id='8018'>0.82214E+02</wgt>
<wgt id='8019'>0.82269E+02</wgt>
<wgt id='8020'>0.81901E+02</wgt>
<wgt id='8021'>0.82245E+02</wgt>
<wgt id='8022'>0.81983E+02</wgt>
<wgt id='8023'>0.82378E+02</wgt>
<wgt id='8024'>0.82414E+02</wgt>
<wgt id='8025'>0.82482E+02</wgt>
<wgt id='8026'>0.82149E+02</wgt>
<wgt id='8027'>0.82145E+02</wgt>
<wgt id='8028'>0.82247E+02</wgt>
<wgt id='8029'>0.81706E+02</wgt>
<wgt id='3000'>0.81104E+02</wgt>
<wgt id='3001'>0.80543E+02</wgt>
<wgt id='3002'>0.82208E+02</wgt>
<wgt id='3003'>0.81493E+02</wgt>
<wgt id='3004'>0.79725E+02</wgt>
<wgt id='3005'>0.80728E+02</wgt>
<wgt id='3006'>0.80616E+02</wgt>
<wgt id='3007'>0.82113E+02</wgt>
<wgt id='3008'>0.81530E+02</wgt>
<wgt id='3009'>0.81951E+02</wgt>
<wgt id='3010'>0.78684E+02</wgt>
<wgt id='3011'>0.80866E+02</wgt>
<wgt id='3012'>0.80245E+02</wgt>
<wgt id='3013'>0.80412E+02</wgt>
<wgt id='3014'>0.81781E+02</wgt>
<wgt id='3015'>0.83112E+02</wgt>
<wgt id='3016'>0.81837E+02</wgt>
<wgt id='3017'>0.81630E+02</wgt>
<wgt id='3018'>0.80800E+02</wgt>
<wgt id='3019'>0.82061E+02</wgt>
<wgt id='3020'>0.81141E+02</wgt>
<wgt id='3021'>0.80642E+02</wgt>
<wgt id='3022'>0.81436E+02</wgt>
<wgt id='3023'>0.82004E+02</wgt>
<wgt id='3024'>0.79866E+02</wgt>
<wgt id='3025'>0.82237E+02</wgt>
<wgt id='3026'>0.83023E+02</wgt>
<wgt id='3027'>0.78710E+02</wgt>
<wgt id='3028'>0.81104E+02</wgt>
<wgt id='3029'>0.81882E+02</wgt>
<wgt id='3030'>0.82143E+02</wgt>
<wgt id='3031'>0.81381E+02</wgt>
<wgt id='3032'>0.80594E+02</wgt>
<wgt id='3033'>0.81531E+02</wgt>
<wgt id='3034'>0.79518E+02</wgt>
<wgt id='3035'>0.80577E+02</wgt>
<wgt id='3036'>0.81633E+02</wgt>
<wgt id='3037'>0.81120E+02</wgt>
<wgt id='3038'>0.80609E+02</wgt>
<wgt id='3039'>0.81898E+02</wgt>
<wgt id='3040'>0.81430E+02</wgt>
<wgt id='3041'>0.82088E+02</wgt>
<wgt id='3042'>0.80009E+02</wgt>
<wgt id='3043'>0.80061E+02</wgt>
<wgt id='3044'>0.80395E+02</wgt>
<wgt id='3045'>0.82121E+02</wgt>
<wgt id='3046'>0.81041E+02</wgt>
<wgt id='3047'>0.79628E+02</wgt>
<wgt id='3048'>0.80791E+02</wgt>
<wgt id='3049'>0.82676E+02</wgt>
<wgt id='3050'>0.80133E+02</wgt>
<wgt id='3051'>0.80963E+02</wgt>
<wgt id='3052'>0.81136E+02</wgt>
<wgt id='3053'>0.81653E+02</wgt>
<wgt id='3054'>0.80764E+02</wgt>
<wgt id='3055'>0.81872E+02</wgt>
<wgt id='3056'>0.80559E+02</wgt>
<wgt id='3057'>0.81276E+02</wgt>
<wgt id='3058'>0.81919E+02</wgt>
<wgt id='3059'>0.83577E+02</wgt>
<wgt id='3060'>0.82374E+02</wgt>
<wgt id='3061'>0.79816E+02</wgt>
<wgt id='3062'>0.80652E+02</wgt>
<wgt id='3063'>0.79849E+02</wgt>
<wgt id='3064'>0.81869E+02</wgt>
<wgt id='3065'>0.81523E+02</wgt>
<wgt id='3066'>0.83459E+02</wgt>
<wgt id='3067'>0.80391E+02</wgt>
<wgt id='3068'>0.82018E+02</wgt>
<wgt id='3069'>0.81391E+02</wgt>
<wgt id='3070'>0.79142E+02</wgt>
<wgt id='3071'>0.82249E+02</wgt>
<wgt id='3072'>0.82224E+02</wgt>
<wgt id='3073'>0.80813E+02</wgt>
<wgt id='3074'>0.81608E+02</wgt>
<wgt id='3075'>0.81321E+02</wgt>
<wgt id='3076'>0.83121E+02</wgt>
<wgt id='3077'>0.79111E+02</wgt>
<wgt id='3078'>0.82884E+02</wgt>
<wgt id='3079'>0.81424E+02</wgt>
<wgt id='3080'>0.79375E+02</wgt>
<wgt id='3081'>0.79110E+02</wgt>
<wgt id='3082'>0.81837E+02</wgt>
<wgt id='3083'>0.78375E+02</wgt>
<wgt id='3084'>0.81076E+02</wgt>
<wgt id='3085'>0.81631E+02</wgt>
<wgt id='3086'>0.79329E+02</wgt>
<wgt id='3087'>0.81664E+02</wgt>
<wgt id='3088'>0.78970E+02</wgt>
<wgt id='3089'>0.79091E+02</wgt>
<wgt id='3090'>0.80727E+02</wgt>
<wgt id='3091'>0.81769E+02</wgt>
<wgt id='3092'>0.81989E+02</wgt>
<wgt id='3093'>0.81226E+02</wgt>
<wgt id='3094'>0.80667E+02</wgt>
<wgt id='3095'>0.79414E+02</wgt>
<wgt id='3096'>0.82061E+02</wgt>
<wgt id='3097'>0.79467E+02</wgt>
<wgt id='3098'>0.81892E+02</wgt>
<wgt id='3099'>0.82036E+02</wgt>
<wgt id='3100'>0.81744E+02</wgt>
<wgt id='3200'>0.80167E+02</wgt>
<wgt id='3201'>0.79783E+02</wgt>
<wgt id='3202'>0.80059E+02</wgt>
<wgt id='3203'>0.80695E+02</wgt>
<wgt id='3204'>0.79292E+02</wgt>
<wgt id='3205'>0.79966E+02</wgt>
<wgt id='3206'>0.79486E+02</wgt>
<wgt id='3207'>0.79767E+02</wgt>
<wgt id='3208'>0.80395E+02</wgt>
<wgt id='3209'>0.80290E+02</wgt>
<wgt id='3210'>0.80254E+02</wgt>
<wgt id='3211'>0.80879E+02</wgt>
<wgt id='3212'>0.80342E+02</wgt>
<wgt id='3213'>0.79294E+02</wgt>
<wgt id='3214'>0.79516E+02</wgt>
<wgt id='3215'>0.79872E+02</wgt>
<wgt id='3216'>0.78642E+02</wgt>
<wgt id='3217'>0.80944E+02</wgt>
<wgt id='3218'>0.80308E+02</wgt>
<wgt id='3219'>0.80942E+02</wgt>
<wgt id='3220'>0.78509E+02</wgt>
<wgt id='3221'>0.80667E+02</wgt>
<wgt id='3222'>0.80243E+02</wgt>
<wgt id='3223'>0.80205E+02</wgt>
<wgt id='3224'>0.79316E+02</wgt>
<wgt id='3225'>0.80221E+02</wgt>
<wgt id='3226'>0.80658E+02</wgt>
<wgt id='3227'>0.79806E+02</wgt>
<wgt id='3228'>0.80258E+02</wgt>
<wgt id='3229'>0.80463E+02</wgt>
<wgt id='3230'>0.80675E+02</wgt>
<wgt id='3231'>0.80993E+02</wgt>
<wgt id='3232'>0.80180E+02</wgt>
<wgt id='3233'>0.80390E+02</wgt>
<wgt id='3234'>0.81229E+02</wgt>
<wgt id='3235'>0.79080E+02</wgt>
<wgt id='3236'>0.79382E+02</wgt>
<wgt id='3237'>0.79224E+02</wgt>
<wgt id='3238'>0.80127E+02</wgt>
<wgt id='3239'>0.80886E+02</wgt>
<wgt id='3240'>0.82018E+02</wgt>
<wgt id='3241'>0.78942E+02</wgt>
<wgt id='3242'>0.79728E+02</wgt>
<wgt id='3243'>0.80124E+02</wgt>
<wgt id='3244'>0.80224E+02</wgt>
<wgt id='3245'>0.79722E+02</wgt>
<wgt id='3246'>0.80571E+02</wgt>
<wgt id='3247'>0.80017E+02</wgt>
<wgt id='3248'>0.80855E+02</wgt>
<wgt id='3249'>0.80531E+02</wgt>
<wgt id='3250'>0.80925E+02</wgt>
<wgt id='3251'>0.79972E+02</wgt>
<wgt id='3252'>0.79263E+02</wgt>
<wgt id='3253'>0.80509E+02</wgt>
<wgt id='3254'>0.80394E+02</wgt>
<wgt id='3255'>0.80171E+02</wgt>
<wgt id='3256'>0.79011E+02</wgt>
<wgt id='3257'>0.79653E+02</wgt>
<wgt id='3258'>0.80610E+02</wgt>
<wgt id='3259'>0.79614E+02</wgt>
<wgt id='3260'>0.79617E+02</wgt>
<wgt id='3261'>0.79834E+02</wgt>
<wgt id='3262'>0.79648E+02</wgt>
<wgt id='3263'>0.79920E+02</wgt>
<wgt id='3264'>0.80775E+02</wgt>
<wgt id='3265'>0.79259E+02</wgt>
<wgt id='3266'>0.79224E+02</wgt>
<wgt id='3267'>0.80791E+02</wgt>
<wgt id='3268'>0.81045E+02</wgt>
<wgt id='3269'>0.79891E+02</wgt>
<wgt id='3270'>0.80994E+02</wgt>
<wgt id='3271'>0.80766E+02</wgt>
<wgt id='3272'>0.80667E+02</wgt>
<wgt id='3273'>0.80780E+02</wgt>
<wgt id='3274'>0.80337E+02</wgt>
<wgt id='3275'>0.80356E+02</wgt>
<wgt id='3276'>0.81406E+02</wgt>
<wgt id='3277'>0.79370E+02</wgt>
<wgt id='3278'>0.80771E+02</wgt>
<wgt id='3279'>0.79871E+02</wgt>
<wgt id='3280'>0.79653E+02</wgt>
<wgt id='3281'>0.79923E+02</wgt>
<wgt id='3282'>0.80455E+02</wgt>
<wgt id='3283'>0.80882E+02</wgt>
<wgt id='3284'>0.80445E+02</wgt>
<wgt id='3285'>0.79515E+02</wgt>
<wgt id='3286'>0.81310E+02</wgt>
<wgt id='3287'>0.79488E+02</wgt>
<wgt id='3288'>0.80273E+02</wgt>
<wgt id='3289'>0.80056E+02</wgt>
<wgt id='3290'>0.81089E+02</wgt>
<wgt id='3291'>0.79802E+02</wgt>
<wgt id='3292'>0.79458E+02</wgt>
<wgt id='3293'>0.79743E+02</wgt>
<wgt id='3294'>0.79993E+02</wgt>
<wgt id='3295'>0.80077E+02</wgt>
<wgt id='3296'>0.81986E+02</wgt>
<wgt id='3297'>0.79220E+02</wgt>
<wgt id='3298'>0.80788E+02</wgt>
<wgt id='3299'>0.80514E+02</wgt>
<wgt id='3300'>0.80593E+02</wgt>
<wgt id='3301'>0.78434E+02</wgt>
<wgt id='3302'>0.81843E+02</wgt>
<wgt id='3400'>0.80588E+02</wgt>
<wgt id='3401'>0.80631E+02</wgt>
<wgt id='3402'>0.80419E+02</wgt>
<wgt id='3403'>0.80378E+02</wgt>
<wgt id='3404'>0.80683E+02</wgt>
<wgt id='3405'>0.80403E+02</wgt>
<wgt id='3406'>0.80302E+02</wgt>
<wgt id='3407'>0.80790E+02</wgt>
<wgt id='3408'>0.80651E+02</wgt>
<wgt id='3409'>0.80923E+02</wgt>
<wgt id='3410'>0.79928E+02</wgt>
<wgt id='3411'>0.80662E+02</wgt>
<wgt id='3412'>0.81200E+02</wgt>
<wgt id='3413'>0.80655E+02</wgt>
<wgt id='3414'>0.80373E+02</wgt>
<wgt id='3415'>0.80425E+02</wgt>
<wgt id='3416'>0.79437E+02</wgt>
<wgt id='3417'>0.80804E+02</wgt>
<wgt id='3418'>0.81116E+02</wgt>
<wgt id='3419'>0.80587E+02</wgt>
<wgt id='3420'>0.80432E+02</wgt>
<wgt id='3421'>0.80296E+02</wgt>
<wgt id='3422'>0.80650E+02</wgt>
<wgt id='3423'>0.80481E+02</wgt>
<wgt id='3424'>0.80508E+02</wgt>
<wgt id='3425'>0.81123E+02</wgt>
<wgt id='3426'>0.81943E+02</wgt>
<wgt id='3427'>0.80552E+02</wgt>
<wgt id='3428'>0.80846E+02</wgt>
<wgt id='3429'>0.79922E+02</wgt>
<wgt id='3430'>0.81879E+02</wgt>
<wgt id='3431'>0.80577E+02</wgt>
<wgt id='3432'>0.79967E+02</wgt>
<wgt id='3433'>0.79958E+02</wgt>
<wgt id='3434'>0.80132E+02</wgt>
<wgt id='3435'>0.80529E+02</wgt>
<wgt id='3436'>0.81351E+02</wgt>
<wgt id='3437'>0.79891E+02</wgt>
<wgt id='3438'>0.80732E+02</wgt>
<wgt id='3439'>0.80860E+02</wgt>
<wgt id='3440'>0.80341E+02</wgt>
<wgt id='3441'>0.79946E+02</wgt>
<wgt id='3442'>0.79501E+02</wgt>
<wgt id='3443'>0.80071E+02</wgt>
<wgt id='3444'>0.80591E+02</wgt>
<wgt id='3445'>0.80399E+02</wgt>
<wgt id='3446'>0.80077E+02</wgt>
<wgt id='3447'>0.81973E+02</wgt>
<wgt id='3448'>0.80238E+02</wgt>
<wgt id='3449'>0.80777E+02</wgt>
<wgt id='3450'>0.80683E+02</wgt>
<wgt id='3451'>0.81274E+02</wgt>
<wgt id='3452'>0.80348E+02</wgt>
<wgt id='3453'>0.81382E+02</wgt>
<wgt id='3454'>0.81465E+02</wgt>
<wgt id='3455'>0.81074E+02</wgt>
<wgt id='3456'>0.80269E+02</wgt>
<wgt id='3457'>0.80092E+02</wgt>
<wgt id='3458'>0.80636E+02</wgt>
<wgt id='3459'>0.80559E+02</wgt>
<wgt id='3460'>0.80615E+02</wgt>
<wgt id='3461'>0.80024E+02</wgt>
<wgt id='3462'>0.79482E+02</wgt>
<wgt id='3463'>0.80155E+02</wgt>
<wgt id='3464'>0.80270E+02</wgt>
<wgt id='3465'>0.80603E+02</wgt>
<wgt id='3466'>0.80655E+02</wgt>
<wgt id='3467'>0.80844E+02</wgt>
<wgt id='3468'>0.79556E+02</wgt>
<wgt id='3469'>0.81237E+02</wgt>
<wgt id='3470'>0.80567E+02</wgt>
<wgt id='3471'>0.81105E+02</wgt>
<wgt id='3472'>0.81273E+02</wgt>
<wgt id='3473'>0.80777E+02</wgt>
<wgt id='3474'>0.80347E+02</wgt>
<wgt id='3475'>0.80847E+02</wgt>
<wgt id='3476'>0.81132E+02</wgt>
<wgt id='3477'>0.80515E+02</wgt>
<wgt id='3478'>0.80635E+02</wgt>
<wgt id='3479'>0.82173E+02</wgt>
<wgt id='3480'>0.80104E+02</wgt>
<wgt id='3481'>0.80617E+02</wgt>
<wgt id='3482'>0.80008E+02</wgt>
<wgt id='3483'>0.80277E+02</wgt>
<wgt id='3484'>0.80251E+02</wgt>
<wgt id='3485'>0.80969E+02</wgt>
<wgt id='3486'>0.79690E+02</wgt>
<wgt id='3487'>0.81008E+02</wgt>
<wgt id='3488'>0.80892E+02</wgt>
<wgt id='3489'>0.79870E+02</wgt>
<wgt id='3490'>0.79405E+02</wgt>
<wgt id='3491'>0.81002E+02</wgt>
<wgt id='3492'>0.81178E+02</wgt>
<wgt id='3493'>0.80501E+02</wgt>
<wgt id='3494'>0.80136E+02</wgt>
<wgt id='3495'>0.80673E+02</wgt>
<wgt id='3496'>0.80599E+02</wgt>
<wgt id='3497'>0.80957E+02</wgt>
<wgt id='3498'>0.81471E+02</wgt>
<wgt id='3499'>0.80872E+02</wgt>
<wgt id='3500'>0.80734E+02</wgt>
</rwgt>
</event>
<event>
     13 322200  8.11039E+01  2.78633E+01 -1.00000E+00  1.52787E-01
      21    -1     0     0   504   505  0.000000000E+00  0.000000000E+00  1.784007447E+02  1.784007447E+02  0.000000000E+00  0.00000E+00  9.000E+00
      21    -1     0     0   502   503  0.000000000E+00  0.000000000E+00 -4.924580950E+02  4.924580950E+02  0.000000000E+00  0.00000E+00  9.000E+00
       6     2     1     2   502     0 -3.929228703E+01  2.353934640E+01 -3.975126551E+02  4.356995393E+02  1.723942952E+02  0.00000E+00  9.000E+00
      -6     2     1     2     0   505  5.398434839E+01  1.356472519E-01  9.634848864E+01  2.044575711E+02  1.720626015E+02  0.00000E+00  9.000E+00
      21     1     1     2   504   503 -1.469206136E+01 -2.367499365E+01 -1.289318383E+01  3.070172928E+01  3.769728732E-07  0.00000E+00  9.000E+00
      24     2     3     3     0     0 -3.517050767E+01  4.448883293E+01 -1.178783184E+02  1.552056252E+02  8.353003814E+01  0.00000E+00  9.000E+00
       5     1     3     3   502     0 -4.121779362E+00 -2.094948653E+01 -2.796343366E+02  2.804939141E+02  5.060000000E+00  0.00000E+00 -1.000E+00
     -24     2     4     4     0     0  8.992062294E+01 -3.844571341E+01  6.142145452E+01  1.410112274E+02  8.091835309E+01  0.00000E+00  9.000E+00
      -5     1     4     4     0   505 -3.593627454E+01  3.858136066E+01  3.492703411E+01  6.344634371E+01  5.060000000E+00  0.00000E+00  1.000E+00
     -13     1     6     6     0     0 -3.156914441E+01 -2.249403040E+00 -3.806356581E+00  3.187742486E+01  1.057000000E-01  0.00000E+00  1.000E+00
      14     1     6     6     0     0 -3.601363258E+00  4.673823597E+01 -1.140719618E+02  1.233282003E+02  0.000000000E+00  0.00000E+00 -1.000E+00
      11     1     8     8     0     0  2.447058009E+01 -2.242166858E+01  6.557976305E+01  7.349997166E+01  5.100000000E-04  0.00000E+00 -1.000E+00
     -12     1     8     8     0     0  6.545004285E+01 -1.602404483E+01 -4.158308526E+00  6.751125574E+01  0.000000000E+00  0.00000E+00  1.000E+00
#rwgt            1           1   774.49001533632793               10       28420           0
<rwgt>
<wgt id='1001'>0.81104E+02</wgt>
<wgt id='1002'>0.96183E+02</wgt>
<wgt id='1003'>0.64629E+02</wgt>
<wgt id='1004'>0.72866E+02</wgt>
<wgt id='1005'>0.83679E+02</wgt>
<wgt id='1006'>0.61032E+02</wgt>
<wgt id='1007'>0.89963E+02</wgt>
<wgt id='1008'>0.11150E+03</wgt>
<wgt id='1009'>0.66474E+02</wgt>
<wgt id='2000'>0.81104E+02</wgt>
<wgt id='2001'>0.81096E+02</wgt>
<wgt id='2002'>0.80917E+02</wgt>
<wgt id='2003'>0.81118E+02</wgt>
<wgt id='2004'>0.81250E+02</wgt>
<wgt id='2005'>0.81123E+02</wgt>
<wgt id='2006'>0.81272E+02</wgt>
<wgt id='2007'>0.81206E+02</wgt>
<wgt id='2008'>0.81372E+02</wgt>
<wgt id='2009'>0.80993E+02</wgt>
<wgt id='2010'>0.81042E+02</wgt>
<wgt id='2011'>0.80900E+02</wgt>
<wgt id='2012'>0.81219E+02</wgt>
<wgt id='2013'>0.81235E+02</wgt>
<wgt id='2014'>0.81319E+02</wgt>
<wgt id='2015'>0.81267E+02</wgt>
<wgt id='2016'>0.81177E+02</wgt>
<wgt id='2017'>0.81190E+02</wgt>
<wgt id='2018'>0.81081E+02</wgt>
<wgt id='2019'>0.81097E+02</wgt>
<wgt id='2020'>0.81033E+02</wgt>
<wgt id='2021'>0.81026E+02</wgt>
<wgt id='2022'>0.81104E+02</wgt>
<wgt id='2023'>0.81279E+02</wgt>
<wgt id='2024'>0.80981E+02</wgt>
<wgt id='2025'>0.80985E+02</wgt>
<wgt id='2026'>0.80973E+02</wgt>
<wgt id='2027'>0.80866E+02</wgt>
<wgt id='2028'>0.81195E+02</wgt>
<wgt id='2029'>0.80763E+02</wgt>
<wgt id='2030'>0.81159E+02</wgt>
<wgt id='2031'>0.80804E+02</wgt>
<wgt id='2032'>0.81204E+02</wgt>
<wgt id='2033'>0.80978E+02</wgt>
<wgt id='2034'>0.80946E+02</wgt>
<wgt id='2035'>0.81090E+02</wgt>
<wgt id='2036'>0.81264E+02</wgt>
<wgt id='2037'>0.81095E+02</wgt>
<wgt id='2038'>0.81037E+02</wgt>
<wgt id='2039'>0.81108E+02</wgt>
<wgt id='2040'>0.81055E+02</wgt>
<wgt id='2041'>0.81091E+02</wgt>
<wgt id='2042'>0.81184E+02</wgt>
<wgt id='2043'>0.81045E+02</wgt>
<wgt id='2044'>0.81182E+02</wgt>
<wgt id='2045'>0.81082E+02</wgt>
<wgt id='2046'>0.81101E+02</wgt>
<wgt id='2047'>0.81096E+02</wgt>
<wgt id='2048'>0.81073E+02</wgt>
<wgt id='2049'>0.81040E+02</wgt>
<wgt id='2050'>0.81075E+02</wgt>
<wgt id='2051'>0.81093E+02</wgt>
<wgt id='2052'>0.81167E+02</wgt>
<wgt id='2053'>0.81086E+02</wgt>
<wgt id='2054'>0.81096E+02</wgt>
<wgt id='2055'>0.81124E+02</wgt>
<wgt id='2056'>0.81050E+02</wgt>
<wgt id='2057'>0.81131E+02</wgt>
<wgt id='2058'>0.81119E+02</wgt>
<wgt id='2059'>0.81099E+02</wgt>
<wgt id='2060'>0.81106E+02</wgt>
<wgt id='2061'>0.81090E+02</wgt>
<wgt id='2062'>0.81167E+02</wgt>
<wgt id='2063'>0.81122E+02</wgt>
<wgt id='2064'>0.81117E+02</wgt>
<wgt id='2065'>0.81177E+02</wgt>
<wgt id='2066'>0.81098E+02</wgt>
<wgt id='2067'>0.81125E+02</wgt>
<wgt id='2068'>0.81125E+02</wgt>
<wgt id='2069'>0.81104E+02</wgt>
<wgt id='2070'>0.81112E+02</wgt>
<wgt id='2071'>0.81102E+02</wgt>
<wgt id='2072'>0.81103E+02</wgt>
<wgt id='2073'>0.81122E+02</wgt>
<wgt id='2074'>0.81086E+02</wgt>
<wgt id='2075'>0.81088E+02</wgt>
<wgt id='2076'>0.81086E+02</wgt>
<wgt id='2077'>0.81152E+02</wgt>
<wgt id='2078'>0.81112E+02</wgt>
<wgt id='2079'>0.81087E+02</wgt>
<wgt id='2080'>0.81115E+02</wgt>
<wgt id='2081'>0.81093E+02</wgt>
<wgt id='2082'>0.81113E+02</wgt>
<wgt id='2083'>0.81135E+02</wgt>
<wgt id='2084'>0.81108E+02</wgt>
<wgt id='2085'>0.81105E+02</wgt>
<wgt id='2086'>0.81092E+02</wgt>
<wgt id='2087'>0.81115E+02</wgt>
<wgt id='2088'>0.81097E+02</wgt>
<wgt id='2089'>0.81092E+02</wgt>
<wgt id='2090'>0.81118E+02</wgt>
<wgt id='2091'>0.81103E+02</wgt>
<wgt id='2092'>0.81125E+02</wgt>
<wgt id='2093'>0.81089E+02</wgt>
<wgt id='2094'>0.81109E+02</wgt>
<wgt id='2095'>0.81119E+02</wgt>
<wgt id='2096'>0.81093E+02</wgt>
<wgt id='2097'>0.81114E+02</wgt>
<wgt id='2098'>0.81100E+02</wgt>
<wgt id='2099'>0.81115E+02</wgt>
<wgt id='2100'>0.81104E+02</wgt>
<wgt id='2101'>0.78982E+02</wgt>
<wgt id='2102'>0.83357E+02</wgt>
<wgt id='2200'>0.81205E+02</wgt>
<wgt id='2201'>0.71087E+02</wgt>
<wgt id='2202'>0.73109E+02</wgt>
<wgt id='2203'>0.75168E+02</wgt>
<wgt id='2204'>0.77077E+02</wgt>
<wgt id='2205'>0.80245E+02</wgt>
<wgt id='2206'>0.82352E+02</wgt>
<wgt id='2207'>0.85172E+02</wgt>
<wgt id='2208'>0.87232E+02</wgt>
<wgt id='2300'>0.84709E+02</wgt>
<wgt id='2301'>0.84814E+02</wgt>
<wgt id='2302'>0.84630E+02</wgt>
<wgt id='2303'>0.84732E+02</wgt>
<wgt id='2304'>0.84933E+02</wgt>
<wgt id='2305'>0.84821E+02</wgt>
<wgt id='2306'>0.84664E+02</wgt>
<wgt id='2307'>0.84875E+02</wgt>
<wgt id='2308'>0.84666E+02</wgt>
<wgt id='2309'>0.84931E+02</wgt>
<wgt id='2310'>0.84579E+02</wgt>
<wgt id='2311'>0.84572E+02</wgt>
<wgt id='2312'>0.84816E+02</wgt>
<wgt id='2313'>0.84740E+02</wgt>
<wgt id='2314'>0.84791E+02</wgt>
<wgt id='2315'>0.84603E+02</wgt>
<wgt id='2316'>0.84746E+02</wgt>
<wgt id='2317'>0.84769E+02</wgt>
<wgt id='2318'>0.84844E+02</wgt>
<wgt id='2319'>0.84650E+02</wgt>
<wgt id='2320'>0.84650E+02</wgt>
<wgt id='2321'>0.84640E+02</wgt>
<wgt id='2322'>0.84700E+02</wgt>
<wgt id='2323'>0.84637E+02</wgt>
<wgt id='2324'>0.84604E+02</wgt>
<wgt id='2325'>0.84785E+02</wgt>
<wgt id='2326'>0.84707E+02</wgt>
<wgt id='2327'>0.84749E+02</wgt>
<wgt id='2328'>0.84531E+02</wgt>
<wgt id='2329'>0.84504E+02</wgt>
<wgt id='2330'>0.85145E+02</wgt>
<wgt id='2331'>0.84923E+02</wgt>
<wgt id='2332'>0.84714E+02</wgt>
<wgt id='2333'>0.84835E+02</wgt>
<wgt id='2334'>0.84714E+02</wgt>
<wgt id='2335'>0.85031E+02</wgt>
<wgt id='2336'>0.84812E+02</wgt>
<wgt id='2337'>0.84660E+02</wgt>
<wgt id='2338'>0.84724E+02</wgt>
<wgt id='2339'>0.84840E+02</wgt>
<wgt id='2340'>0.84585E+02</wgt>
<wgt id='2341'>0.84708E+02</wgt>
<wgt id='2342'>0.84608E+02</wgt>
<wgt id='2343'>0.84560E+02</wgt>
<wgt id='2344'>0.84802E+02</wgt>
<wgt id='2345'>0.84798E+02</wgt>
<wgt id='2346'>0.84807E+02</wgt>
<wgt id='2347'>0.84707E+02</wgt>
<wgt id='2348'>0.84716E+02</wgt>
<wgt id='2349'>0.84665E+02</wgt>
<wgt id='2350'>0.84619E+02</wgt>
<wgt id='2351'>0.84847E+02</wgt>
<wgt id='2352'>0.84665E+02</wgt>
<wgt id='2353'>0.84701E+02</wgt>
<wgt id='2354'>0.84727E+02</wgt>
<wgt id='2355'>0.84666E+02</wgt>
<wgt id='2356'>0.84738E+02</wgt>
<wgt id='2357'>0.84727E+02</wgt>
<wgt id='2358'>0.84645E+02</wgt>
<wgt id='2359'>0.84739E+02</wgt>
<wgt id='2360'>0.84748E+02</wgt>
<wgt id='2361'>0.84783E+02</wgt>
<wgt id='2362'>0.84740E+02</wgt>
<wgt id='2363'>0.84728E+02</wgt>
<wgt id='2364'>0.84689E+02</wgt>
<wgt id='2365'>0.84700E+02</wgt>
<wgt id='2366'>0.84738E+02</wgt>
<wgt id='2367'>0.84642E+02</wgt>
<wgt id='2368'>0.84734E+02</wgt>
<wgt id='2369'>0.84672E+02</wgt>
<wgt id='2370'>0.84684E+02</wgt>
<wgt id='2371'>0.84691E+02</wgt>
<wgt id='2372'>0.84730E+02</wgt>
<wgt id='2373'>0.84688E+02</wgt>
<wgt id='2374'>0.84737E+02</wgt>
<wgt id='2375'>0.84718E+02</wgt>
<wgt id='2376'>0.84711E+02</wgt>
<wgt id='2377'>0.84713E+02</wgt>
<wgt id='2378'>0.84739E+02</wgt>
<wgt id='2379'>0.84701E+02</wgt>
<wgt id='2380'>0.84697E+02</wgt>
<wgt id='2381'>0.84708E+02</wgt>
<wgt id='2382'>0.84699E+02</wgt>
<wgt id='2383'>0.84703E+02</wgt>
<wgt id='2384'>0.84691E+02</wgt>
<wgt id='2385'>0.84716E+02</wgt>
<wgt id='2386'>0.84692E+02</wgt>
<wgt id='2387'>0.84695E+02</wgt>
<wgt id='2388'>0.84702E+02</wgt>
<wgt id='2389'>0.84712E+02</wgt>
<wgt id='2390'>0.84713E+02</wgt>
<wgt id='2391'>0.84714E+02</wgt>
<wgt id='2392'>0.84711E+02</wgt>
<wgt id='2393'>0.84710E+02</wgt>
<wgt id='2394'>0.84723E+02</wgt>
<wgt id='2395'>0.84715E+02</wgt>
<wgt id='2396'>0.84707E+02</wgt>
<wgt id='2397'>0.84695E+02</wgt>
<wgt id='2398'>0.84709E+02</wgt>
<wgt id='2399'>0.84723E+02</wgt>
<wgt id='2400'>0.84714E+02</wgt>
<wgt id='2401'>0.82474E+02</wgt>
<wgt id='2402'>0.86871E+02</wgt>
<wgt id='2500'>0.81671E+02</wgt>
<wgt id='2501'>0.86581E+02</wgt>
<wgt id='2600'>0.78450E+02</wgt>
<wgt id='2601'>0.78432E+02</wgt>
<wgt id='2602'>0.78384E+02</wgt>
<wgt id='2603'>0.78416E+02</wgt>
<wgt id='2604'>0.78486E+02</wgt>
<wgt id='2605'>0.78331E+02</wgt>
<wgt id='2606'>0.78307E+02</wgt>
<wgt id='2607'>0.78553E+02</wgt>
<wgt id='2608'>0.78399E+02</wgt>
<wgt id='2609'>0.78369E+02</wgt>
<wgt id='2610'>0.78398E+02</wgt>
<wgt id='2611'>0.78378E+02</wgt>
<wgt id='2612'>0.78735E+02</wgt>
<wgt id='2613'>0.78418E+02</wgt>
<wgt id='2614'>0.78422E+02</wgt>
<wgt id='2615'>0.78287E+02</wgt>
<wgt id='2616'>0.78430E+02</wgt>
<wgt id='2617'>0.78288E+02</wgt>
<wgt id='2618'>0.78257E+02</wgt>
<wgt id='2619'>0.78505E+02</wgt>
<wgt id='2620'>0.78455E+02</wgt>
<wgt id='2621'>0.78448E+02</wgt>
<wgt id='2622'>0.78602E+02</wgt>
<wgt id='2623'>0.78445E+02</wgt>
<wgt id='2624'>0.78453E+02</wgt>
<wgt id='2625'>0.78393E+02</wgt>
<wgt id='2626'>0.78436E+02</wgt>
<wgt id='2627'>0.78430E+02</wgt>
<wgt id='2628'>0.78465E+02</wgt>
<wgt id='2629'>0.78454E+02</wgt>
<wgt id='2630'>0.78460E+02</wgt>
<wgt id='2631'>0.78401E+02</wgt>
<wgt id='2632'>0.78458E+02</wgt>
<wgt id='2633'>0.78430E+02</wgt>
<wgt id='2634'>0.78421E+02</wgt>
<wgt id='2635'>0.78441E+02</wgt>
<wgt id='2636'>0.78438E+02</wgt>
<wgt id='2637'>0.78455E+02</wgt>
<wgt id='2638'>0.78465E+02</wgt>
<wgt id='2639'>0.78452E+02</wgt>
<wgt id='2640'>0.78446E+02</wgt>
<wgt id='2641'>0.78462E+02</wgt>
<wgt id='2642'>0.78457E+02</wgt>
<wgt id='2643'>0.78449E+02</wgt>
<wgt id='2644'>0.78446E+02</wgt>
<wgt id='2645'>0.78450E+02</wgt>
<wgt id='2646'>0.78461E+02</wgt>
<wgt id='2647'>0.78449E+02</wgt>
<wgt id='2648'>0.78447E+02</wgt>
<wgt id='2649'>0.78451E+02</wgt>
<wgt id='2650'>0.78449E+02</wgt>
<wgt id='2651'>0.77095E+02</wgt>
<wgt id='2652'>0.79691E+02</wgt>
<wgt id='2700'>0.75797E+02</wgt>
<wgt id='2701'>0.77095E+02</wgt>
<wgt id='2702'>0.77827E+02</wgt>
<wgt id='2703'>0.78992E+02</wgt>
<wgt id='2704'>0.79691E+02</wgt>
<wgt id='2705'>0.80880E+02</wgt>
<wgt id='2800'>0.79628E+02</wgt>
<wgt id='4000'>0.80200E+02</wgt>
<wgt id='4001'>0.80568E+02</wgt>
<wgt id='4002'>0.80111E+02</wgt>
<wgt id='4003'>0.80567E+02</wgt>
<wgt id='4004'>0.79789E+02</wgt>
<wgt id='4005'>0.79898E+02</wgt>
<wgt id='4006'>0.80515E+02</wgt>
<wgt id='4007'>0.81176E+02</wgt>
<wgt id='4008'>0.79251E+02</wgt>
<wgt id='4009'>0.80646E+02</wgt>
<wgt id='4010'>0.79793E+02</wgt>
<wgt id='4011'>0.80515E+02</wgt>
<wgt id='4012'>0.79895E+02</wgt>
<wgt id='4013'>0.80782E+02</wgt>
<wgt id='4014'>0.79703E+02</wgt>
<wgt id='4015'>0.79816E+02</wgt>
<wgt id='4016'>0.80604E+02</wgt>
<wgt id='4017'>0.80117E+02</wgt>
<wgt id='4018'>0.80328E+02</wgt>
<wgt id='4019'>0.80749E+02</wgt>
<wgt id='4020'>0.79378E+02</wgt>
<wgt id='4021'>0.80292E+02</wgt>
<wgt id='4022'>0.80020E+02</wgt>
<wgt id='4023'>0.80119E+02</wgt>
<wgt id='4024'>0.80387E+02</wgt>
<wgt id='4025'>0.80428E+02</wgt>
<wgt id='4026'>0.79669E+02</wgt>
<wgt id='4027'>0.80158E+02</wgt>
<wgt id='4028'>0.80289E+02</wgt>
<wgt id='4029'>0.79630E+02</wgt>
<wgt id='4030'>0.80070E+02</wgt>
<wgt id='4031'>0.79988E+02</wgt>
<wgt id='4032'>0.80369E+02</wgt>
<wgt id='4033'>0.80281E+02</wgt>
<wgt id='4034'>0.79873E+02</wgt>
<wgt id='4035'>0.81318E+02</wgt>
<wgt id='4036'>0.79346E+02</wgt>
<wgt id='4037'>0.81629E+02</wgt>
<wgt id='4038'>0.79083E+02</wgt>
<wgt id='4039'>0.81615E+02</wgt>
<wgt id='4040'>0.78760E+02</wgt>
<wgt id='4041'>0.80154E+02</wgt>
<wgt id='4042'>0.80131E+02</wgt>
<wgt id='4043'>0.79252E+02</wgt>
<wgt id='4044'>0.80351E+02</wgt>
<wgt id='4045'>0.81735E+02</wgt>
<wgt id='4046'>0.79483E+02</wgt>
<wgt id='4047'>0.79267E+02</wgt>
<wgt id='4048'>0.80632E+02</wgt>
<wgt id='4049'>0.80134E+02</wgt>
<wgt id='4050'>0.80247E+02</wgt>
<wgt id='4051'>0.81245E+02</wgt>
<wgt id='4052'>0.79264E+02</wgt>
<wgt id='4053'>0.80877E+02</wgt>
<wgt id='4054'>0.79118E+02</wgt>
<wgt id='4055'>0.80639E+02</wgt>
<wgt id='4056'>0.79735E+02</wgt>
<wgt id='4057'>0.79387E+02</wgt>
<wgt id='4058'>0.80733E+02</wgt>
<wgt id='4100'>0.80768E+02</wgt>
<wgt id='4101'>0.80500E+02</wgt>
<wgt id='4102'>0.79872E+02</wgt>
<wgt id='4103'>0.79520E+02</wgt>
<wgt id='4200'>0.77005E+02</wgt>
<wgt id='4201'>0.77113E+02</wgt>
<wgt id='4202'>0.77146E+02</wgt>
<wgt id='4203'>0.76346E+02</wgt>
<wgt id='4204'>0.77518E+02</wgt>
<wgt id='4205'>0.76933E+02</wgt>
<wgt id='4206'>0.77228E+02</wgt>
<wgt id='4207'>0.76931E+02</wgt>
<wgt id='4208'>0.77107E+02</wgt>
<wgt id='4209'>0.77171E+02</wgt>
<wgt id='4210'>0.77014E+02</wgt>
<wgt id='4211'>0.78033E+02</wgt>
<wgt id='4212'>0.76201E+02</wgt>
<wgt id='4213'>0.77201E+02</wgt>
<wgt id='4214'>0.76701E+02</wgt>
<wgt id='4215'>0.77094E+02</wgt>
<wgt id='4216'>0.76693E+02</wgt>
<wgt id='4217'>0.76648E+02</wgt>
<wgt id='4218'>0.77265E+02</wgt>
<wgt id='4219'>0.75898E+02</wgt>
<wgt id='4220'>0.78039E+02</wgt>
<wgt id='4221'>0.76389E+02</wgt>
<wgt id='4222'>0.77747E+02</wgt>
<wgt id='4223'>0.77395E+02</wgt>
<wgt id='4224'>0.76293E+02</wgt>
<wgt id='4225'>0.75586E+02</wgt>
<wgt id='4226'>0.78381E+02</wgt>
<wgt id='4227'>0.77635E+02</wgt>
<wgt id='4228'>0.76475E+02</wgt>
<wgt id='4229'>0.76192E+02</wgt>
<wgt id='4230'>0.77572E+02</wgt>
<wgt id='4231'>0.77052E+02</wgt>
<wgt id='4232'>0.76870E+02</wgt>
<wgt id='4233'>0.77269E+02</wgt>
<wgt id='4234'>0.76497E+02</wgt>
<wgt id='4235'>0.77454E+02</wgt>
<wgt id='4236'>0.76631E+02</wgt>
<wgt id='4237'>0.77201E+02</wgt>
<wgt id='4238'>0.76528E+02</wgt>
<wgt id='4239'>0.77509E+02</wgt>
<wgt id='4240'>0.75730E+02</wgt>
<wgt id='4241'>0.76676E+02</wgt>
<wgt id='4242'>0.77353E+02</wgt>
<wgt id='4243'>0.76968E+02</wgt>
<wgt id='4244'>0.77284E+02</wgt>
<wgt id='4245'>0.76254E+02</wgt>
<wgt id='4246'>0.77675E+02</wgt>
<wgt id='4247'>0.76693E+02</wgt>
<wgt id='4248'>0.77134E+02</wgt>
<wgt id='4249'>0.78240E+02</wgt>
<wgt id='4250'>0.75570E+02</wgt>
<wgt id='4251'>0.76401E+02</wgt>
<wgt id='4252'>0.77307E+02</wgt>
<wgt id='4253'>0.76706E+02</wgt>
<wgt id='4254'>0.77144E+02</wgt>
<wgt id='4255'>0.77406E+02</wgt>
<wgt id='4256'>0.76697E+02</wgt>
<wgt id='4257'>0.75556E+02</wgt>
<wgt id='4258'>0.77421E+02</wgt>
<wgt id='4300'>0.79403E+02</wgt>
<wgt id='4301'>0.78509E+02</wgt>
<wgt id='5000'>0.79869E+02</wgt>
<wgt id='5001'>0.79911E+02</wgt>
<wgt id='5002'>0.79816E+02</wgt>
<wgt id='5003'>0.79888E+02</wgt>
<wgt id='5004'>0.79852E+02</wgt>
<wgt id='5005'>0.79878E+02</wgt>
<wgt id='5006'>0.79855E+02</wgt>
<wgt id='5007'>0.79935E+02</wgt>
<wgt id='5008'>0.79816E+02</wgt>
<wgt id='5009'>0.79986E+02</wgt>
<wgt id='5010'>0.79749E+02</wgt>
<wgt id='5011'>0.80057E+02</wgt>
<wgt id='5012'>0.79689E+02</wgt>
<wgt id='5013'>0.79997E+02</wgt>
<wgt id='5014'>0.79779E+02</wgt>
<wgt id='5015'>0.79461E+02</wgt>
<wgt id='5016'>0.79461E+02</wgt>
<wgt id='5017'>0.80309E+02</wgt>
<wgt id='5018'>0.79573E+02</wgt>
<wgt id='5019'>0.80171E+02</wgt>
<wgt id='5020'>0.79456E+02</wgt>
<wgt id='5021'>0.79960E+02</wgt>
<wgt id='5022'>0.79729E+02</wgt>
<wgt id='5023'>0.79786E+02</wgt>
<wgt id='5024'>0.80070E+02</wgt>
<wgt id='5025'>0.79590E+02</wgt>
<wgt id='5026'>0.80182E+02</wgt>
<wgt id='5027'>0.79912E+02</wgt>
<wgt id='5028'>0.79755E+02</wgt>
<wgt id='5029'>0.80627E+02</wgt>
<wgt id='5030'>0.79441E+02</wgt>
<wgt id='5031'>0.79478E+02</wgt>
<wgt id='5032'>0.81061E+02</wgt>
<wgt id='5033'>0.79858E+02</wgt>
<wgt id='5034'>0.79882E+02</wgt>
<wgt id='5035'>0.79876E+02</wgt>
<wgt id='5036'>0.79863E+02</wgt>
<wgt id='5037'>0.79724E+02</wgt>
<wgt id='5038'>0.79952E+02</wgt>
<wgt id='5039'>0.80079E+02</wgt>
<wgt id='5040'>0.79352E+02</wgt>
<wgt id='5041'>0.80035E+02</wgt>
<wgt id='5042'>0.79701E+02</wgt>
<wgt id='5043'>0.80012E+02</wgt>
<wgt id='5044'>0.79784E+02</wgt>
<wgt id='5045'>0.79719E+02</wgt>
<wgt id='5046'>0.80157E+02</wgt>
<wgt id='5047'>0.79916E+02</wgt>
<wgt id='5048'>0.79663E+02</wgt>
<wgt id='5049'>0.79833E+02</wgt>
<wgt id='5050'>0.79957E+02</wgt>
<wgt id='5051'>0.80012E+02</wgt>
<wgt id='5052'>0.79751E+02</wgt>
<wgt id='5053'>0.79795E+02</wgt>
<wgt id='5054'>0.80030E+02</wgt>
<wgt id='5055'>0.79921E+02</wgt>
<wgt id='5056'>0.79897E+02</wgt>
<wgt id='5057'>0.79600E+02</wgt>
<wgt id='5058'>0.80058E+02</wgt>
<wgt id='5059'>0.79837E+02</wgt>
<wgt id='5060'>0.79897E+02</wgt>
<wgt id='5061'>0.80141E+02</wgt>
<wgt id='5062'>0.79919E+02</wgt>
<wgt id='5063'>0.80179E+02</wgt>
<wgt id='5064'>0.79819E+02</wgt>
<wgt id='5100'>0.79869E+02</wgt>
<wgt id='5101'>0.79885E+02</wgt>
<wgt id='6000'>0.79858E+02</wgt>
<wgt id='6001'>0.79897E+02</wgt>
<wgt id='6002'>0.79826E+02</wgt>
<wgt id='6003'>0.79775E+02</wgt>
<wgt id='6004'>0.79887E+02</wgt>
<wgt id='6005'>0.79649E+02</wgt>
<wgt id='6006'>0.80078E+02</wgt>
<wgt id='6007'>0.79677E+02</wgt>
<wgt id='6008'>0.79416E+02</wgt>
<wgt id='6009'>0.80025E+02</wgt>
<wgt id='6010'>0.78745E+02</wgt>
<wgt id='6011'>0.79834E+02</wgt>
<wgt id='6012'>0.80090E+02</wgt>
<wgt id='6013'>0.79607E+02</wgt>
<wgt id='6014'>0.79717E+02</wgt>
<wgt id='6015'>0.79276E+02</wgt>
<wgt id='6016'>0.79988E+02</wgt>
<wgt id='6017'>0.79782E+02</wgt>
<wgt id='6018'>0.79625E+02</wgt>
<wgt id='6019'>0.79898E+02</wgt>
<wgt id='6020'>0.80001E+02</wgt>
<wgt id='6021'>0.79876E+02</wgt>
<wgt id='6022'>0.79895E+02</wgt>
<wgt id='6023'>0.79872E+02</wgt>
<wgt id='6024'>0.79931E+02</wgt>
<wgt id='6025'>0.80124E+02</wgt>
<wgt id='6026'>0.79853E+02</wgt>
<wgt id='6027'>0.79872E+02</wgt>
<wgt id='6028'>0.79684E+02</wgt>
<wgt id='6029'>0.79712E+02</wgt>
<wgt id='6030'>0.80137E+02</wgt>
<wgt id='6031'>0.79682E+02</wgt>
<wgt id='6032'>0.79868E+02</wgt>
<wgt id='6033'>0.79733E+02</wgt>
<wgt id='6034'>0.80097E+02</wgt>
<wgt id='6035'>0.79904E+02</wgt>
<wgt id='6036'>0.80343E+02</wgt>
<wgt id='6037'>0.79866E+02</wgt>
<wgt id='6038'>0.79898E+02</wgt>
<wgt id='6039'>0.80004E+02</wgt>
<wgt id='6040'>0.79844E+02</wgt>
<wgt id='6041'>0.78892E+02</wgt>
<wgt id='6042'>0.80833E+02</wgt>
<wgt id='7000'>0.79448E+02</wgt>
<wgt id='7001'>0.79166E+02</wgt>
<wgt id='7002'>0.79341E+02</wgt>
<wgt id='7003'>0.79227E+02</wgt>
<wgt id='7004'>0.79280E+02</wgt>
<wgt id='7005'>0.79356E+02</wgt>
<wgt id='7006'>0.79151E+02</wgt>
<wgt id='7007'>0.79763E+02</wgt>
<wgt id='7008'>0.78758E+02</wgt>
<wgt id='7009'>0.78907E+02</wgt>
<wgt id='7010'>0.79612E+02</wgt>
<wgt id='7011'>0.79532E+02</wgt>
<wgt id='7012'>0.78978E+02</wgt>
<wgt id='7013'>0.79129E+02</wgt>
<wgt id='7014'>0.79370E+02</wgt>
<wgt id='7015'>0.79183E+02</wgt>
<wgt id='7016'>0.79095E+02</wgt>
<wgt id='7017'>0.79271E+02</wgt>
<wgt id='7018'>0.79240E+02</wgt>
<wgt id='7019'>0.79139E+02</wgt>
<wgt id='7020'>0.79379E+02</wgt>
<wgt id='7021'>0.79448E+02</wgt>
<wgt id='7022'>0.79047E+02</wgt>
<wgt id='7023'>0.78865E+02</wgt>
<wgt id='7024'>0.79656E+02</wgt>
<wgt id='7025'>0.78249E+02</wgt>
<wgt id='7026'>0.80191E+02</wgt>
<wgt id='7027'>0.78849E+02</wgt>
<wgt id='7028'>0.79712E+02</wgt>
<wgt id='8000'>0.79873E+02</wgt>
<wgt id='8001'>0.79864E+02</wgt>
<wgt id='8002'>0.79898E+02</wgt>
<wgt id='8003'>0.79875E+02</wgt>
<wgt id='8004'>0.79871E+02</wgt>
<wgt id='8005'>0.79724E+02</wgt>
<wgt id='8006'>0.79959E+02</wgt>
<wgt id='8007'>0.80038E+02</wgt>
<wgt id='8008'>0.80056E+02</wgt>
<wgt id='8009'>0.80216E+02</wgt>
<wgt id='8010'>0.79782E+02</wgt>
<wgt id='8011'>0.79889E+02</wgt>
<wgt id='8012'>0.79567E+02</wgt>
<wgt id='8013'>0.79711E+02</wgt>
<wgt id='8014'>0.80071E+02</wgt>
<wgt id='8015'>0.79827E+02</wgt>
<wgt id='8016'>0.79952E+02</wgt>
<wgt id='8017'>0.79927E+02</wgt>
<wgt id='8018'>0.80078E+02</wgt>
<wgt id='8019'>0.79929E+02</wgt>
<wgt id='8020'>0.79831E+02</wgt>
<wgt id='8021'>0.79803E+02</wgt>
<wgt id='8022'>0.79791E+02</wgt>
<wgt id='8023'>0.79785E+02</wgt>
<wgt id='8024'>0.79626E+02</wgt>
<wgt id='8025'>0.79832E+02</wgt>
<wgt id='8026'>0.79980E+02</wgt>
<wgt id='8027'>0.79924E+02</wgt>
<wgt id='8028'>0.79932E+02</wgt>
<wgt id='8029'>0.79813E+02</wgt>
<wgt id='3000'>0.81104E+02</wgt>
<wgt id='3001'>0.80903E+02</wgt>
<wgt id='3002'>0.80090E+02</wgt>
<wgt id='3003'>0.80736E+02</wgt>
<wgt id='3004'>0.82078E+02</wgt>
<wgt id='3005'>0.81179E+02</wgt>
<wgt id='3006'>0.82693E+02</wgt>
<wgt id='3007'>0.80508E+02</wgt>
<wgt id='3008'>0.80302E+02</wgt>
<wgt id='3009'>0.81639E+02</wgt>
<wgt id='3010'>0.82916E+02</wgt>
<wgt id='3011'>0.81559E+02</wgt>
<wgt id='3012'>0.81744E+02</wgt>
<wgt id='3013'>0.80163E+02</wgt>
<wgt id='3014'>0.80685E+02</wgt>
<wgt id='3015'>0.81135E+02</wgt>
<wgt id='3016'>0.81984E+02</wgt>
<wgt id='3017'>0.82770E+02</wgt>
<wgt id='3018'>0.81068E+02</wgt>
<wgt id='3019'>0.79478E+02</wgt>
<wgt id='3020'>0.80373E+02</wgt>
<wgt id='3021'>0.79420E+02</wgt>
<wgt id='3022'>0.79100E+02</wgt>
<wgt id='3023'>0.79618E+02</wgt>
<wgt id='3024'>0.80339E+02</wgt>
<wgt id='3025'>0.79951E+02</wgt>
<wgt id='3026'>0.80357E+02</wgt>
<wgt id='3027'>0.79785E+02</wgt>
<wgt id='3028'>0.80051E+02</wgt>
<wgt id='3029'>0.82358E+02</wgt>
<wgt id='3030'>0.82541E+02</wgt>
<wgt id='3031'>0.81514E+02</wgt>
<wgt id='3032'>0.82290E+02</wgt>
<wgt id='3033'>0.80429E+02</wgt>
<wgt id='3034'>0.81853E+02</wgt>
<wgt id='3035'>0.81177E+02</wgt>
<wgt id='3036'>0.80367E+02</wgt>
<wgt id='3037'>0.80242E+02</wgt>
<wgt id='3038'>0.80953E+02</wgt>
<wgt id='3039'>0.81237E+02</wgt>
<wgt id='3040'>0.81276E+02</wgt>
<wgt id='3041'>0.81580E+02</wgt>
<wgt id='3042'>0.81420E+02</wgt>
<wgt id='3043'>0.81559E+02</wgt>
<wgt id='3044'>0.81463E+02</wgt>
<wgt id='3045'>0.81462E+02</wgt>
<wgt id='3046'>0.81766E+02</wgt>
<wgt id='3047'>0.79787E+02</wgt>
<wgt id='3048'>0.80176E+02</wgt>
<wgt id='3049'>0.80842E+02</wgt>
<wgt id='3050'>0.81389E+02</wgt>
<wgt id='3051'>0.81154E+02</wgt>
<wgt id='3052'>0.79860E+02</wgt>
<wgt id='3053'>0.80955E+02</wgt>
<wgt id='3054'>0.80884E+02</wgt>
<wgt id='3055'>0.80154E+02</wgt>
<wgt id='3056'>0.80942E+02</wgt>
<wgt id='3057'>0.80300E+02</wgt>
<wgt id='3058'>0.80129E+02</wgt>
<wgt id='3059'>0.82296E+02</wgt>
<wgt id='3060'>0.81019E+02</wgt>
<wgt id='3061'>0.80865E+02</wgt>
<wgt id='3062'>0.80846E+02</wgt>
<wgt id='3063'>0.79479E+02</wgt>
<wgt id='3064'>0.81317E+02</wgt>
<wgt id='3065'>0.80299E+02</wgt>
<wgt id='3066'>0.81939E+02</wgt>
<wgt id='3067'>0.79788E+02</wgt>
<wgt id='3068'>0.81543E+02</wgt>
<wgt id='3069'>0.81061E+02</wgt>
<wgt id='3070'>0.80395E+02</wgt>
<wgt id='3071'>0.81842E+02</wgt>
<wgt id='3072'>0.80233E+02</wgt>
<wgt id='3073'>0.82023E+02</wgt>
<wgt id='3074'>0.81596E+02</wgt>
<wgt id='3075'>0.82434E+02</wgt>
<wgt id='3076'>0.82710E+02</wgt>
<wgt id='3077'>0.80744E+02</wgt>
<wgt id='3078'>0.80899E+02</wgt>
<wgt id='3079'>0.80891E+02</wgt>
<wgt id='3080'>0.81879E+02</wgt>
<wgt id='3081'>0.80197E+02</wgt>
<wgt id='3082'>0.81984E+02</wgt>
<wgt id='3083'>0.81552E+02</wgt>
<wgt id='3084'>0.81039E+02</wgt>
<wgt id='3085'>0.81273E+02</wgt>
<wgt id='3086'>0.80610E+02</wgt>
<wgt id='3087'>0.81563E+02</wgt>
<wgt id='3088'>0.82817E+02</wgt>
<wgt id='3089'>0.84125E+02</wgt>
<wgt id='3090'>0.81857E+02</wgt>
<wgt id='3091'>0.80813E+02</wgt>
<wgt id='3092'>0.82318E+02</wgt>
<wgt id='3093'>0.81694E+02</wgt>
<wgt id='3094'>0.81434E+02</wgt>
<wgt id='3095'>0.81464E+02</wgt>
<wgt id='3096'>0.80354E+02</wgt>
<wgt id='3097'>0.81245E+02</wgt>
<wgt id='3098'>0.82109E+02</wgt>
<wgt id='3099'>0.80240E+02</wgt>
<wgt id='3100'>0.80605E+02</wgt>
<wgt id='3200'>0.78477E+02</wgt>
<wgt id='3201'>0.79025E+02</wgt>
<wgt id='3202'>0.77278E+02</wgt>
<wgt id='3203'>0.78606E+02</wgt>
<wgt id='3204'>0.77771E+02</wgt>
<wgt id='3205'>0.79102E+02</wgt>
<wgt id='3206'>0.79112E+02</wgt>
<wgt id='3207'>0.79344E+02</wgt>
<wgt id='3208'>0.78983E+02</wgt>
<wgt id='3209'>0.78291E+02</wgt>
<wgt id='3210'>0.78459E+02</wgt>
<wgt id='3211'>0.79162E+02</wgt>
<wgt id='3212'>0.77690E+02</wgt>
<wgt id='3213'>0.78362E+02</wgt>
<wgt id='3214'>0.78022E+02</wgt>
<wgt id='3215'>0.78559E+02</wgt>
<wgt id='3216'>0.79281E+02</wgt>
<wgt id='3217'>0.78772E+02</wgt>
<wgt id='3218'>0.78666E+02</wgt>
<wgt id='3219'>0.78346E+02</wgt>
<wgt id='3220'>0.77942E+02</wgt>
<wgt id='3221'>0.79086E+02</wgt>
<wgt id='3222'>0.79642E+02</wgt>
<wgt id='3223'>0.78532E+02</wgt>
<wgt id='3224'>0.78296E+02</wgt>
<wgt id='3225'>0.79165E+02</wgt>
<wgt id='3226'>0.78565E+02</wgt>
<wgt id='3227'>0.77854E+02</wgt>
<wgt id='3228'>0.77744E+02</wgt>
<wgt id='3229'>0.78955E+02</wgt>
<wgt id='3230'>0.78971E+02</wgt>
<wgt id='3231'>0.78706E+02</wgt>
<wgt id='3232'>0.78854E+02</wgt>
<wgt id='3233'>0.79120E+02</wgt>
<wgt id='3234'>0.78253E+02</wgt>
<wgt id='3235'>0.78042E+02</wgt>
<wgt id='3236'>0.77711E+02</wgt>
<wgt id='3237'>0.78252E+02</wgt>
<wgt id='3238'>0.78072E+02</wgt>
<wgt id='3239'>0.78055E+02</wgt>
<wgt id='3240'>0.78070E+02</wgt>
<wgt id='3241'>0.79257E+02</wgt>
<wgt id='3242'>0.77946E+02</wgt>
<wgt id='3243'>0.77640E+02</wgt>
<wgt id='3244'>0.78222E+02</wgt>
<wgt id='3245'>0.78826E+02</wgt>
<wgt id='3246'>0.77602E+02</wgt>
<wgt id='3247'>0.78540E+02</wgt>
<wgt id='3248'>0.78159E+02</wgt>
<wgt id='3249'>0.77868E+02</wgt>
<wgt id='3250'>0.78796E+02</wgt>
<wgt id='3251'>0.78389E+02</wgt>
<wgt id='3252'>0.78743E+02</wgt>
<wgt id='3253'>0.78242E+02</wgt>
<wgt id='3254'>0.78195E+02</wgt>
<wgt id='3255'>0.78309E+02</wgt>
<wgt id='3256'>0.78208E+02</wgt>
<wgt id='3257'>0.78291E+02</wgt>
<wgt id='3258'>0.78694E+02</wgt>
<wgt id='3259'>0.78533E+02</wgt>
<wgt id='3260'>0.78626E+02</wgt>
<wgt id='3261'>0.78961E+02</wgt>
<wgt id='3262'>0.78294E+02</wgt>
<wgt id='3263'>0.79234E+02</wgt>
<wgt id='3264'>0.78544E+02</wgt>
<wgt id='3265'>0.78630E+02</wgt>
<wgt id='3266'>0.78252E+02</wgt>
<wgt id='3267'>0.78250E+02</wgt>
<wgt id='3268'>0.78935E+02</wgt>
<wgt id='3269'>0.78646E+02</wgt>
<wgt id='3270'>0.78748E+02</wgt>
<wgt id='3271'>0.78688E+02</wgt>
<wgt id='3272'>0.78956E+02</wgt>
<wgt id='3273'>0.78389E+02</wgt>
<wgt id='3274'>0.78505E+02</wgt>
<wgt id='3275'>0.78772E+02</wgt>
<wgt id='3276'>0.77988E+02</wgt>
<wgt id='3277'>0.77837E+02</wgt>
<wgt id='3278'>0.78461E+02</wgt>
<wgt id='3279'>0.79137E+02</wgt>
<wgt id='3280'>0.78335E+02</wgt>
<wgt id='3281'>0.78785E+02</wgt>
<wgt id='3282'>0.78817E+02</wgt>
<wgt id='3283'>0.78717E+02</wgt>
<wgt id='3284'>0.78628E+02</wgt>
<wgt id='3285'>0.77886E+02</wgt>
<wgt id='3286'>0.78052E+02</wgt>
<wgt id='3287'>0.78299E+02</wgt>
<wgt id='3288'>0.78729E+02</wgt>
<wgt id='3289'>0.79576E+02</wgt>
<wgt id='3290'>0.79307E+02</wgt>
<wgt id='3291'>0.77047E+02</wgt>
<wgt id='3292'>0.77539E+02</wgt>
<wgt id='3293'>0.78315E+02</wgt>
<wgt id='3294'>0.77225E+02</wgt>
<wgt id='3295'>0.77957E+02</wgt>
<wgt id='3296'>0.79690E+02</wgt>
<wgt id='3297'>0.78164E+02</wgt>
<wgt id='3298'>0.78308E+02</wgt>
<wgt id='3299'>0.78174E+02</wgt>
<wgt id='3300'>0.79119E+02</wgt>
<wgt id='3301'>0.77095E+02</wgt>
<wgt id='3302'>0.79691E+02</wgt>
<wgt id='3400'>0.78603E+02</wgt>
<wgt id='3401'>0.78664E+02</wgt>
<wgt id='3402'>0.77975E+02</wgt>
<wgt id='3403'>0.79363E+02</wgt>
<wgt id='3404'>0.79790E+02</wgt>
<wgt id='3405'>0.79359E+02</wgt>
<wgt id='3406'>0.78823E+02</wgt>
<wgt id='3407'>0.78115E+02</wgt>
<wgt id='3408'>0.79948E+02</wgt>
<wgt id='3409'>0.79738E+02</wgt>
<wgt id='3410'>0.78944E+02</wgt>
<wgt id='3411'>0.79220E+02</wgt>
<wgt id='3412'>0.79276E+02</wgt>
<wgt id='3413'>0.78483E+02</wgt>
<wgt id='3414'>0.78308E+02</wgt>
<wgt id='3415'>0.78555E+02</wgt>
<wgt id='3416'>0.78188E+02</wgt>
<wgt id='3417'>0.78552E+02</wgt>
<wgt id='3418'>0.78024E+02</wgt>
<wgt id='3419'>0.78016E+02</wgt>
<wgt id='3420'>0.78829E+02</wgt>
<wgt id='3421'>0.78895E+02</wgt>
<wgt id='3422'>0.78938E+02</wgt>
<wgt id='3423'>0.79243E+02</wgt>
<wgt id='3424'>0.79010E+02</wgt>
<wgt id='3425'>0.78534E+02</wgt>
<wgt id='3426'>0.78693E+02</wgt>
<wgt id='3427'>0.78554E+02</wgt>
<wgt id='3428'>0.79285E+02</wgt>
<wgt id='3429'>0.77986E+02</wgt>
<wgt id='3430'>0.78803E+02</wgt>
<wgt id='3431'>0.78550E+02</wgt>
<wgt id='3432'>0.78510E+02</wgt>
<wgt id='3433'>0.77469E+02</wgt>
<wgt id='3434'>0.78815E+02</wgt>
<wgt id='3435'>0.79011E+02</wgt>
<wgt id='3436'>0.78551E+02</wgt>
<wgt id='3437'>0.78536E+02</wgt>
<wgt id='3438'>0.77853E+02</wgt>
<wgt id='3439'>0.78823E+02</wgt>
<wgt id='3440'>0.78778E+02</wgt>
<wgt id='3441'>0.78597E+02</wgt>
<wgt id='3442'>0.77300E+02</wgt>
<wgt id='3443'>0.78531E+02</wgt>
<wgt id='3444'>0.78386E+02</wgt>
<wgt id='3445'>0.78222E+02</wgt>
<wgt id='3446'>0.79215E+02</wgt>
<wgt id='3447'>0.79636E+02</wgt>
<wgt id='3448'>0.79309E+02</wgt>
<wgt id='3449'>0.79415E+02</wgt>
<wgt id='3450'>0.78638E+02</wgt>
<wgt id='3451'>0.79388E+02</wgt>
<wgt id='3452'>0.78320E+02</wgt>
<wgt id='3453'>0.77726E+02</wgt>
<wgt id='3454'>0.77927E+02</wgt>
<wgt id='3455'>0.79560E+02</wgt>
<wgt id='3456'>0.78831E+02</wgt>
<wgt id='3457'>0.79701E+02</wgt>
<wgt id='3458'>0.78761E+02</wgt>
<wgt id='3459'>0.78474E+02</wgt>
<wgt id='3460'>0.78431E+02</wgt>
<wgt id='3461'>0.77944E+02</wgt>
<wgt id='3462'>0.78414E+02</wgt>
<wgt id='3463'>0.77795E+02</wgt>
<wgt id='3464'>0.78963E+02</wgt>
<wgt id='3465'>0.78758E+02</wgt>
<wgt id='3466'>0.79015E+02</wgt>
<wgt id='3467'>0.78260E+02</wgt>
<wgt id='3468'>0.78019E+02</wgt>
<wgt id='3469'>0.78607E+02</wgt>
<wgt id='3470'>0.78409E+02</wgt>
<wgt id='3471'>0.78424E+02</wgt>
<wgt id='3472'>0.77838E+02</wgt>
<wgt id='3473'>0.79121E+02</wgt>
<wgt id='3474'>0.78479E+02</wgt>
<wgt id='3475'>0.78651E+02</wgt>
<wgt id='3476'>0.78554E+02</wgt>
<wgt id='3477'>0.77966E+02</wgt>
<wgt id='3478'>0.79342E+02</wgt>
<wgt id='3479'>0.79079E+02</wgt>
<wgt id='3480'>0.78116E+02</wgt>
<wgt id='3481'>0.78703E+02</wgt>
<wgt id='3482'>0.78560E+02</wgt>
<wgt id='3483'>0.77576E+02</wgt>
<wgt id='3484'>0.78471E+02</wgt>
<wgt id='3485'>0.78241E+02</wgt>
<wgt id='3486'>0.77261E+02</wgt>
<wgt id='3487'>0.78926E+02</wgt>
<wgt id='3488'>0.79064E+02</wgt>
<wgt id='3489'>0.77798E+02</wgt>
<wgt id='3490'>0.79281E+02</wgt>
<wgt id='3491'>0.78584E+02</wgt>
<wgt id='3492'>0.78844E+02</wgt>
<wgt id='3493'>0.78177E+02</wgt>
<wgt id='3494'>0.76614E+02</wgt>
<wgt id='3495'>0.78787E+02</wgt>
<wgt id='3496'>0.77652E+02</wgt>
<wgt id='3497'>0.78149E+02</wgt>
<wgt id='3498'>0.78815E+02</wgt>
<wgt id='3499'>0.78489E+02</wgt>
<wgt id='3500'>0.79136E+02</wgt>
</rwgt>
</event>
<event>
     13 322200  8.11039E+01  2.91488E+00 -1.00000E+00  2.90895E-01
      -1    -1     0     0     0   512  0.000000000E+00  0.000000000E+00  1.059563186E+03  1.059563186E+03  0.000000000E+00  0.00000E+00  9.000E+00
       1    -1     0     0   502     0  0.000000000E+00  0.000000000E+00 -7.729589910E+01  7.729589910E+01  0.000000000E+00  0.00000E+00  9.000E+00
       6     2     1     2   502     0  4.747807669E+01 -1.970094194E+02  3.650734638E+02  4.491730888E+02  1.655625279E+02  0.00000E+00  9.000E+00
      -6     2     1     2     0   513 -4.871075332E+01  1.943680138E+02  6.110117287E+02  6.808511732E+02  2.237662289E+02  0.00000E+00  9.000E+00
      21     1     1     2   513   512  1.232676635E+00  2.641405619E+00  6.182094082E+00  6.834822790E+00  0.000000000E+00  0.00000E+00  9.000E+00
      24     2     3     3     0     0  2.169136406E+01 -3.140890923E+01  8.854530707E+01  1.257818264E+02  8.076980625E+01  0.00000E+00  9.000E+00
       5     1     3     3   502     0  2.578671262E+01 -1.656005101E+02  2.765281567E+02  3.233912623E+02  5.060000000E+00  0.00000E+00 -1.000E+00
     -24     2     4     4     0     0  5.003344809E+01  7.310439640E+01  1.390676426E+02  1.836468830E+02  8.086265955E+01  0.00000E+00  9.000E+00
      -5     1     4     4     0   513 -9.874420141E+01  1.212636174E+02  4.719440861E+02  4.972042902E+02  5.060000000E+00  0.00000E+00  1.000E+00
     -15     1     6     6     0     0  2.541210596E+01 -1.695193840E+01 -5.041785044E+00  3.101162153E+01  1.777000000E+00  0.00000E+00  1.000E+00
      16     1     6     6     0     0 -3.720741894E+00 -1.445697084E+01  9.358709211E+01  9.477020489E+01  0.000000000E+00  0.00000E+00 -1.000E+00
      15     1     8     8     0     0  4.099168234E+00  4.770033873E+01  1.175104895E+02  1.269015302E+02  1.777000000E+00  0.00000E+00 -1.000E+00
     -16     1     8     8     0     0  4.593427986E+01  2.540405767E+01  2.155715309E+01  5.674535277E+01  0.000000000E+00  0.00000E+00  1.000E+00
#rwgt            1           6   4.6311114663591404               10       28616           0
<rwgt>
<wgt id='1001'>0.81104E+02</wgt>
<wgt id='1002'>0.87992E+02</wgt>
<wgt id='1003'>0.75407E+02</wgt>
<wgt id='1004'>0.79995E+02</wgt>
<wgt id='1005'>0.84891E+02</wgt>
<wgt id='1006'>0.76002E+02</wgt>
<wgt id='1007'>0.78028E+02</wgt>
<wgt id='1008'>0.87893E+02</wgt>
<wgt id='1009'>0.69774E+02</wgt>
<wgt id='2000'>0.81104E+02</wgt>
<wgt id='2001'>0.80984E+02</wgt>
<wgt id='2002'>0.80898E+02</wgt>
<wgt id='2003'>0.81039E+02</wgt>
<wgt id='2004'>0.81327E+02</wgt>
<wgt id='2005'>0.80414E+02</wgt>
<wgt id='2006'>0.80847E+02</wgt>
<wgt id='2007'>0.80897E+02</wgt>
<wgt id='2008'>0.80414E+02</wgt>
<wgt id='2009'>0.81843E+02</wgt>
<wgt id='2010'>0.81295E+02</wgt>
<wgt id='2011'>0.81225E+02</wgt>
<wgt id='2012'>0.81334E+02</wgt>
<wgt id='2013'>0.81565E+02</wgt>
<wgt id='2014'>0.80504E+02</wgt>
<wgt id='2015'>0.82680E+02</wgt>
<wgt id='2016'>0.81450E+02</wgt>
<wgt id='2017'>0.80988E+02</wgt>
<wgt id='2018'>0.80538E+02</wgt>
<wgt id='2019'>0.80776E+02</wgt>
<wgt id='2020'>0.81808E+02</wgt>
<wgt id='2021'>0.80577E+02</wgt>
<wgt id='2022'>0.81856E+02</wgt>
<wgt id='2023'>0.81122E+02</wgt>
<wgt id='2024'>0.80870E+02</wgt>
<wgt id='2025'>0.80536E+02</wgt>
<wgt id='2026'>0.80718E+02</wgt>
<wgt id='2027'>0.82429E+02</wgt>
<wgt id='2028'>0.80886E+02</wgt>
<wgt id='2029'>0.81269E+02</wgt>
<wgt id='2030'>0.81474E+02</wgt>
<wgt id='2031'>0.81150E+02</wgt>
<wgt id='2032'>0.80420E+02</wgt>
<wgt id='2033'>0.81551E+02</wgt>
<wgt id='2034'>0.81126E+02</wgt>
<wgt id='2035'>0.81197E+02</wgt>
<wgt id='2036'>0.81229E+02</wgt>
<wgt id='2037'>0.80455E+02</wgt>
<wgt id='2038'>0.81374E+02</wgt>
<wgt id='2039'>0.81297E+02</wgt>
<wgt id='2040'>0.81009E+02</wgt>
<wgt id='2041'>0.81506E+02</wgt>
<wgt id='2042'>0.81221E+02</wgt>
<wgt id='2043'>0.80630E+02</wgt>
<wgt id='2044'>0.80504E+02</wgt>
<wgt id='2045'>0.81487E+02</wgt>
<wgt id='2046'>0.81541E+02</wgt>
<wgt id='2047'>0.80920E+02</wgt>
<wgt id='2048'>0.80753E+02</wgt>
<wgt id='2049'>0.81467E+02</wgt>
<wgt id='2050'>0.81078E+02</wgt>
<wgt id='2051'>0.81353E+02</wgt>
<wgt id='2052'>0.81155E+02</wgt>
<wgt id='2053'>0.81199E+02</wgt>
<wgt id='2054'>0.81366E+02</wgt>
<wgt id='2055'>0.81554E+02</wgt>
<wgt id='2056'>0.81151E+02</wgt>
<wgt id='2057'>0.80918E+02</wgt>
<wgt id='2058'>0.80842E+02</wgt>
<wgt id='2059'>0.81448E+02</wgt>
<wgt id='2060'>0.81247E+02</wgt>
<wgt id='2061'>0.81444E+02</wgt>
<wgt id='2062'>0.81394E+02</wgt>
<wgt id='2063'>0.80480E+02</wgt>
<wgt id='2064'>0.81410E+02</wgt>
<wgt id='2065'>0.80920E+02</wgt>
<wgt id='2066'>0.81756E+02</wgt>
<wgt id='2067'>0.81088E+02</wgt>
<wgt id='2068'>0.80893E+02</wgt>
<wgt id='2069'>0.80783E+02</wgt>
<wgt id='2070'>0.81145E+02</wgt>
<wgt id='2071'>0.80975E+02</wgt>
<wgt id='2072'>0.81381E+02</wgt>
<wgt id='2073'>0.81001E+02</wgt>
<wgt id='2074'>0.80655E+02</wgt>
<wgt id='2075'>0.80824E+02</wgt>
<wgt id='2076'>0.80851E+02</wgt>
<wgt id='2077'>0.80976E+02</wgt>
<wgt id='2078'>0.81661E+02</wgt>
<wgt id='2079'>0.81253E+02</wgt>
<wgt id='2080'>0.81219E+02</wgt>
<wgt id='2081'>0.81248E+02</wgt>
<wgt id='2082'>0.81291E+02</wgt>
<wgt id='2083'>0.80730E+02</wgt>
<wgt id='2084'>0.81342E+02</wgt>
<wgt id='2085'>0.80592E+02</wgt>
<wgt id='2086'>0.81208E+02</wgt>
<wgt id='2087'>0.81358E+02</wgt>
<wgt id='2088'>0.81090E+02</wgt>
<wgt id='2089'>0.81095E+02</wgt>
<wgt id='2090'>0.80797E+02</wgt>
<wgt id='2091'>0.81343E+02</wgt>
<wgt id='2092'>0.81039E+02</wgt>
<wgt id='2093'>0.81131E+02</wgt>
<wgt id='2094'>0.81019E+02</wgt>
<wgt id='2095'>0.81108E+02</wgt>
<wgt id='2096'>0.80839E+02</wgt>
<wgt id='2097'>0.81268E+02</wgt>
<wgt id='2098'>0.80986E+02</wgt>
<wgt id='2099'>0.81188E+02</wgt>
<wgt id='2100'>0.81104E+02</wgt>
<wgt id='2101'>0.79052E+02</wgt>
<wgt id='2102'>0.83314E+02</wgt>
<wgt id='2200'>0.81446E+02</wgt>
<wgt id='2201'>0.72634E+02</wgt>
<wgt id='2202'>0.74516E+02</wgt>
<wgt id='2203'>0.75749E+02</wgt>
<wgt id='2204'>0.77917E+02</wgt>
<wgt id='2205'>0.80117E+02</wgt>
<wgt id='2206'>0.82073E+02</wgt>
<wgt id='2207'>0.84796E+02</wgt>
<wgt id='2208'>0.86669E+02</wgt>
<wgt id='2300'>0.84788E+02</wgt>
<wgt id='2301'>0.84686E+02</wgt>
<wgt id='2302'>0.84956E+02</wgt>
<wgt id='2303'>0.84635E+02</wgt>
<wgt id='2304'>0.85219E+02</wgt>
<wgt id='2305'>0.84457E+02</wgt>
<wgt id='2306'>0.84556E+02</wgt>
<wgt id='2307'>0.84567E+02</wgt>
<wgt id='2308'>0.84387E+02</wgt>
<wgt id='2309'>0.84881E+02</wgt>
<wgt id='2310'>0.84133E+02</wgt>
<wgt id='2311'>0.84750E+02</wgt>
<wgt id='2312'>0.84815E+02</wgt>
<wgt id='2313'>0.85169E+02</wgt>
<wgt id='2314'>0.85209E+02</wgt>
<wgt id='2315'>0.84082E+02</wgt>
<wgt id='2316'>0.85184E+02</wgt>
<wgt id='2317'>0.84422E+02</wgt>
<wgt id='2318'>0.84775E+02</wgt>
<wgt id='2319'>0.84580E+02</wgt>
<wgt id='2320'>0.84420E+02</wgt>
<wgt id='2321'>0.85700E+02</wgt>
<wgt id='2322'>0.84876E+02</wgt>
<wgt id='2323'>0.84847E+02</wgt>
<wgt id='2324'>0.85702E+02</wgt>
<wgt id='2325'>0.84221E+02</wgt>
<wgt id='2326'>0.84736E+02</wgt>
<wgt id='2327'>0.84663E+02</wgt>
<wgt id='2328'>0.84358E+02</wgt>
<wgt id='2329'>0.85737E+02</wgt>
<wgt id='2330'>0.86138E+02</wgt>
<wgt id='2331'>0.84299E+02</wgt>
<wgt id='2332'>0.84848E+02</wgt>
<wgt id='2333'>0.84690E+02</wgt>
<wgt id='2334'>0.84664E+02</wgt>
<wgt id='2335'>0.84194E+02</wgt>
<wgt id='2336'>0.84375E+02</wgt>
<wgt id='2337'>0.84367E+02</wgt>
<wgt id='2338'>0.84572E+02</wgt>
<wgt id='2339'>0.84677E+02</wgt>
<wgt id='2340'>0.85085E+02</wgt>
<wgt id='2341'>0.84464E+02</wgt>
<wgt id='2342'>0.84528E+02</wgt>
<wgt id='2343'>0.85384E+02</wgt>
<wgt id='2344'>0.84704E+02</wgt>
<wgt id='2345'>0.84516E+02</wgt>
<wgt id='2346'>0.84840E+02</wgt>
<wgt id='2347'>0.85403E+02</wgt>
<wgt id='2348'>0.85099E+02</wgt>
<wgt id='2349'>0.84933E+02</wgt>
<wgt id='2350'>0.85482E+02</wgt>
<wgt id='2351'>0.84637E+02</wgt>
<wgt id='2352'>0.84964E+02</wgt>
<wgt id='2353'>0.84038E+02</wgt>
<wgt id='2354'>0.84514E+02</wgt>
<wgt id='2355'>0.84807E+02</wgt>
<wgt id='2356'>0.84505E+02</wgt>
<wgt id='2357'>0.84981E+02</wgt>
<wgt id='2358'>0.83869E+02</wgt>
<wgt id='2359'>0.83787E+02</wgt>
<wgt id='2360'>0.84125E+02</wgt>
<wgt id='2361'>0.85127E+02</wgt>
<wgt id='2362'>0.85788E+02</wgt>
<wgt id='2363'>0.85224E+02</wgt>
<wgt id='2364'>0.84857E+02</wgt>
<wgt id='2365'>0.84865E+02</wgt>
<wgt id='2366'>0.85402E+02</wgt>
<wgt id='2367'>0.85088E+02</wgt>
<wgt id='2368'>0.85170E+02</wgt>
<wgt id='2369'>0.85214E+02</wgt>
<wgt id='2370'>0.84968E+02</wgt>
<wgt id='2371'>0.84219E+02</wgt>
<wgt id='2372'>0.85223E+02</wgt>
<wgt id='2373'>0.84863E+02</wgt>
<wgt id='2374'>0.84726E+02</wgt>
<wgt id='2375'>0.84693E+02</wgt>
<wgt id='2376'>0.85132E+02</wgt>
<wgt id='2377'>0.84419E+02</wgt>
<wgt id='2378'>0.84892E+02</wgt>
<wgt id='2379'>0.84726E+02</wgt>
<wgt id='2380'>0.84714E+02</wgt>
<wgt id='2381'>0.84599E+02</wgt>
<wgt id='2382'>0.84765E+02</wgt>
<wgt id='2383'>0.84613E+02</wgt>
<wgt id='2384'>0.84461E+02</wgt>
<wgt id='2385'>0.84561E+02</wgt>
<wgt id='2386'>0.84948E+02</wgt>
<wgt id='2387'>0.85049E+02</wgt>
<wgt id='2388'>0.84760E+02</wgt>
<wgt id='2389'>0.84895E+02</wgt>
<wgt id='2390'>0.84458E+02</wgt>
<wgt id='2391'>0.85004E+02</wgt>
<wgt id='2392'>0.84948E+02</wgt>
<wgt id='2393'>0.84483E+02</wgt>
<wgt id='2394'>0.84919E+02</wgt>
<wgt id='2395'>0.85108E+02</wgt>
<wgt id='2396'>0.84545E+02</wgt>
<wgt id='2397'>0.84498E+02</wgt>
<wgt id='2398'>0.84644E+02</wgt>
<wgt id='2399'>0.84786E+02</wgt>
<wgt id='2400'>0.85153E+02</wgt>
<wgt id='2401'>0.82800E+02</wgt>
<wgt id='2402'>0.87779E+02</wgt>
<wgt id='2500'>0.79353E+02</wgt>
<wgt id='2501'>0.80681E+02</wgt>
<wgt id='2600'>0.83079E+02</wgt>
<wgt id='2601'>0.82867E+02</wgt>
<wgt id='2602'>0.82462E+02</wgt>
<wgt id='2603'>0.83196E+02</wgt>
<wgt id='2604'>0.82799E+02</wgt>
<wgt id='2605'>0.81969E+02</wgt>
<wgt id='2606'>0.83872E+02</wgt>
<wgt id='2607'>0.82864E+02</wgt>
<wgt id='2608'>0.82000E+02</wgt>
<wgt id='2609'>0.83094E+02</wgt>
<wgt id='2610'>0.82868E+02</wgt>
<wgt id='2611'>0.82597E+02</wgt>
<wgt id='2612'>0.82550E+02</wgt>
<wgt id='2613'>0.83351E+02</wgt>
<wgt id='2614'>0.82800E+02</wgt>
<wgt id='2615'>0.83313E+02</wgt>
<wgt id='2616'>0.84177E+02</wgt>
<wgt id='2617'>0.83539E+02</wgt>
<wgt id='2618'>0.82760E+02</wgt>
<wgt id='2619'>0.83860E+02</wgt>
<wgt id='2620'>0.82621E+02</wgt>
<wgt id='2621'>0.82750E+02</wgt>
<wgt id='2622'>0.82418E+02</wgt>
<wgt id='2623'>0.83417E+02</wgt>
<wgt id='2624'>0.83852E+02</wgt>
<wgt id='2625'>0.83443E+02</wgt>
<wgt id='2626'>0.82602E+02</wgt>
<wgt id='2627'>0.82118E+02</wgt>
<wgt id='2628'>0.82857E+02</wgt>
<wgt id='2629'>0.82553E+02</wgt>
<wgt id='2630'>0.83757E+02</wgt>
<wgt id='2631'>0.82910E+02</wgt>
<wgt id='2632'>0.82814E+02</wgt>
<wgt id='2633'>0.83418E+02</wgt>
<wgt id='2634'>0.82841E+02</wgt>
<wgt id='2635'>0.83409E+02</wgt>
<wgt id='2636'>0.82931E+02</wgt>
<wgt id='2637'>0.82903E+02</wgt>
<wgt id='2638'>0.83039E+02</wgt>
<wgt id='2639'>0.83090E+02</wgt>
<wgt id='2640'>0.82790E+02</wgt>
<wgt id='2641'>0.82982E+02</wgt>
<wgt id='2642'>0.82849E+02</wgt>
<wgt id='2643'>0.83230E+02</wgt>
<wgt id='2644'>0.82753E+02</wgt>
<wgt id='2645'>0.83067E+02</wgt>
<wgt id='2646'>0.83329E+02</wgt>
<wgt id='2647'>0.83277E+02</wgt>
<wgt id='2648'>0.83213E+02</wgt>
<wgt id='2649'>0.83105E+02</wgt>
<wgt id='2650'>0.82838E+02</wgt>
<wgt id='2651'>0.82776E+02</wgt>
<wgt id='2652'>0.83511E+02</wgt>
<wgt id='2700'>0.82236E+02</wgt>
<wgt id='2701'>0.82776E+02</wgt>
<wgt id='2702'>0.82463E+02</wgt>
<wgt id='2703'>0.83485E+02</wgt>
<wgt id='2704'>0.83511E+02</wgt>
<wgt id='2705'>0.84219E+02</wgt>
<wgt id='2800'>0.82968E+02</wgt>
<wgt id='4000'>0.74479E+02</wgt>
<wgt id='4001'>0.72607E+02</wgt>
<wgt id='4002'>0.73766E+02</wgt>
<wgt id='4003'>0.72524E+02</wgt>
<wgt id='4004'>0.77448E+02</wgt>
<wgt id='4005'>0.73256E+02</wgt>
<wgt id='4006'>0.75818E+02</wgt>
<wgt id='4007'>0.72765E+02</wgt>
<wgt id='4008'>0.75737E+02</wgt>
<wgt id='4009'>0.72466E+02</wgt>
<wgt id='4010'>0.76088E+02</wgt>
<wgt id='4011'>0.74776E+02</wgt>
<wgt id='4012'>0.75323E+02</wgt>
<wgt id='4013'>0.73848E+02</wgt>
<wgt id='4014'>0.74509E+02</wgt>
<wgt id='4015'>0.76515E+02</wgt>
<wgt id='4016'>0.72785E+02</wgt>
<wgt id='4017'>0.76234E+02</wgt>
<wgt id='4018'>0.72283E+02</wgt>
<wgt id='4019'>0.76978E+02</wgt>
<wgt id='4020'>0.69114E+02</wgt>
<wgt id='4021'>0.75622E+02</wgt>
<wgt id='4022'>0.72620E+02</wgt>
<wgt id='4023'>0.75078E+02</wgt>
<wgt id='4024'>0.73601E+02</wgt>
<wgt id='4025'>0.74285E+02</wgt>
<wgt id='4026'>0.75126E+02</wgt>
<wgt id='4027'>0.70955E+02</wgt>
<wgt id='4028'>0.77330E+02</wgt>
<wgt id='4029'>0.72412E+02</wgt>
<wgt id='4030'>0.74684E+02</wgt>
<wgt id='4031'>0.72843E+02</wgt>
<wgt id='4032'>0.78311E+02</wgt>
<wgt id='4033'>0.72722E+02</wgt>
<wgt id='4034'>0.75718E+02</wgt>
<wgt id='4035'>0.72747E+02</wgt>
<wgt id='4036'>0.75762E+02</wgt>
<wgt id='4037'>0.76713E+02</wgt>
<wgt id='4038'>0.71520E+02</wgt>
<wgt id='4039'>0.72859E+02</wgt>
<wgt id='4040'>0.75428E+02</wgt>
<wgt id='4041'>0.72853E+02</wgt>
<wgt id='4042'>0.75645E+02</wgt>
<wgt id='4043'>0.74159E+02</wgt>
<wgt id='4044'>0.73820E+02</wgt>
<wgt id='4045'>0.73039E+02</wgt>
<wgt id='4046'>0.75145E+02</wgt>
<wgt id='4047'>0.72840E+02</wgt>
<wgt id='4048'>0.75272E+02</wgt>
<wgt id='4049'>0.72059E+02</wgt>
<wgt id='4050'>0.76536E+02</wgt>
<wgt id='4051'>0.74759E+02</wgt>
<wgt id='4052'>0.72695E+02</wgt>
<wgt id='4053'>0.72548E+02</wgt>
<wgt id='4054'>0.77006E+02</wgt>
<wgt id='4055'>0.75970E+02</wgt>
<wgt id='4056'>0.73386E+02</wgt>
<wgt id='4057'>0.74169E+02</wgt>
<wgt id='4058'>0.74694E+02</wgt>
<wgt id='4100'>0.74725E+02</wgt>
<wgt id='4101'>0.74589E+02</wgt>
<wgt id='4102'>0.74397E+02</wgt>
<wgt id='4103'>0.74347E+02</wgt>
<wgt id='4200'>0.74095E+02</wgt>
<wgt id='4201'>0.73281E+02</wgt>
<wgt id='4202'>0.72826E+02</wgt>
<wgt id='4203'>0.75598E+02</wgt>
<wgt id='4204'>0.72837E+02</wgt>
<wgt id='4205'>0.75089E+02</wgt>
<wgt id='4206'>0.72312E+02</wgt>
<wgt id='4207'>0.72002E+02</wgt>
<wgt id='4208'>0.73677E+02</wgt>
<wgt id='4209'>0.74531E+02</wgt>
<wgt id='4210'>0.73077E+02</wgt>
<wgt id='4211'>0.74429E+02</wgt>
<wgt id='4212'>0.73662E+02</wgt>
<wgt id='4213'>0.73610E+02</wgt>
<wgt id='4214'>0.73649E+02</wgt>
<wgt id='4215'>0.75963E+02</wgt>
<wgt id='4216'>0.71316E+02</wgt>
<wgt id='4217'>0.71073E+02</wgt>
<wgt id='4218'>0.75997E+02</wgt>
<wgt id='4219'>0.70923E+02</wgt>
<wgt id='4220'>0.77834E+02</wgt>
<wgt id='4221'>0.72803E+02</wgt>
<wgt id='4222'>0.75924E+02</wgt>
<wgt id='4223'>0.71079E+02</wgt>
<wgt id='4224'>0.76196E+02</wgt>
<wgt id='4225'>0.72698E+02</wgt>
<wgt id='4226'>0.75047E+02</wgt>
<wgt id='4227'>0.72373E+02</wgt>
<wgt id='4228'>0.75492E+02</wgt>
<wgt id='4229'>0.73178E+02</wgt>
<wgt id='4230'>0.73832E+02</wgt>
<wgt id='4231'>0.74463E+02</wgt>
<wgt id='4232'>0.72859E+02</wgt>
<wgt id='4233'>0.74351E+02</wgt>
<wgt id='4234'>0.73785E+02</wgt>
<wgt id='4235'>0.77024E+02</wgt>
<wgt id='4236'>0.71639E+02</wgt>
<wgt id='4237'>0.77253E+02</wgt>
<wgt id='4238'>0.70909E+02</wgt>
<wgt id='4239'>0.71326E+02</wgt>
<wgt id='4240'>0.75953E+02</wgt>
<wgt id='4241'>0.75657E+02</wgt>
<wgt id='4242'>0.72533E+02</wgt>
<wgt id='4243'>0.71478E+02</wgt>
<wgt id='4244'>0.78073E+02</wgt>
<wgt id='4245'>0.74299E+02</wgt>
<wgt id='4246'>0.73419E+02</wgt>
<wgt id='4247'>0.75944E+02</wgt>
<wgt id='4248'>0.73059E+02</wgt>
<wgt id='4249'>0.71661E+02</wgt>
<wgt id='4250'>0.76863E+02</wgt>
<wgt id='4251'>0.75356E+02</wgt>
<wgt id='4252'>0.73270E+02</wgt>
<wgt id='4253'>0.75069E+02</wgt>
<wgt id='4254'>0.72873E+02</wgt>
<wgt id='4255'>0.72714E+02</wgt>
<wgt id='4256'>0.75000E+02</wgt>
<wgt id='4257'>0.73487E+02</wgt>
<wgt id='4258'>0.74272E+02</wgt>
<wgt id='4300'>0.71510E+02</wgt>
<wgt id='4301'>0.75693E+02</wgt>
<wgt id='5000'>0.79365E+02</wgt>
<wgt id='5001'>0.79197E+02</wgt>
<wgt id='5002'>0.79579E+02</wgt>
<wgt id='5003'>0.78954E+02</wgt>
<wgt id='5004'>0.79740E+02</wgt>
<wgt id='5005'>0.79407E+02</wgt>
<wgt id='5006'>0.79292E+02</wgt>
<wgt id='5007'>0.79393E+02</wgt>
<wgt id='5008'>0.79340E+02</wgt>
<wgt id='5009'>0.79579E+02</wgt>
<wgt id='5010'>0.79144E+02</wgt>
<wgt id='5011'>0.78444E+02</wgt>
<wgt id='5012'>0.80257E+02</wgt>
<wgt id='5013'>0.79471E+02</wgt>
<wgt id='5014'>0.79289E+02</wgt>
<wgt id='5015'>0.80013E+02</wgt>
<wgt id='5016'>0.80013E+02</wgt>
<wgt id='5017'>0.79317E+02</wgt>
<wgt id='5018'>0.79395E+02</wgt>
<wgt id='5019'>0.78911E+02</wgt>
<wgt id='5020'>0.79993E+02</wgt>
<wgt id='5021'>0.78547E+02</wgt>
<wgt id='5022'>0.80662E+02</wgt>
<wgt id='5023'>0.79431E+02</wgt>
<wgt id='5024'>0.79205E+02</wgt>
<wgt id='5025'>0.80119E+02</wgt>
<wgt id='5026'>0.78529E+02</wgt>
<wgt id='5027'>0.79511E+02</wgt>
<wgt id='5028'>0.78967E+02</wgt>
<wgt id='5029'>0.79394E+02</wgt>
<wgt id='5030'>0.79350E+02</wgt>
<wgt id='5031'>0.79979E+02</wgt>
<wgt id='5032'>0.77593E+02</wgt>
<wgt id='5033'>0.79592E+02</wgt>
<wgt id='5034'>0.79121E+02</wgt>
<wgt id='5035'>0.78826E+02</wgt>
<wgt id='5036'>0.80097E+02</wgt>
<wgt id='5037'>0.78846E+02</wgt>
<wgt id='5038'>0.79651E+02</wgt>
<wgt id='5039'>0.79541E+02</wgt>
<wgt id='5040'>0.78869E+02</wgt>
<wgt id='5041'>0.79077E+02</wgt>
<wgt id='5042'>0.79655E+02</wgt>
<wgt id='5043'>0.80021E+02</wgt>
<wgt id='5044'>0.78693E+02</wgt>
<wgt id='5045'>0.79267E+02</wgt>
<wgt id='5046'>0.79677E+02</wgt>
<wgt id='5047'>0.79317E+02</wgt>
<wgt id='5048'>0.79386E+02</wgt>
<wgt id='5049'>0.79253E+02</wgt>
<wgt id='5050'>0.79560E+02</wgt>
<wgt id='5051'>0.77558E+02</wgt>
<wgt id='5052'>0.81050E+02</wgt>
<wgt id='5053'>0.78784E+02</wgt>
<wgt id='5054'>0.79995E+02</wgt>
<wgt id='5055'>0.79560E+02</wgt>
<wgt id='5056'>0.79095E+02</wgt>
<wgt id='5057'>0.77979E+02</wgt>
<wgt id='5058'>0.80065E+02</wgt>
<wgt id='5059'>0.78815E+02</wgt>
<wgt id='5060'>0.79620E+02</wgt>
<wgt id='5061'>0.78371E+02</wgt>
<wgt id='5062'>0.79240E+02</wgt>
<wgt id='5063'>0.80500E+02</wgt>
<wgt id='5064'>0.79370E+02</wgt>
<wgt id='5100'>0.79365E+02</wgt>
<wgt id='5101'>0.79213E+02</wgt>
<wgt id='6000'>0.77138E+02</wgt>
<wgt id='6001'>0.76852E+02</wgt>
<wgt id='6002'>0.76706E+02</wgt>
<wgt id='6003'>0.77299E+02</wgt>
<wgt id='6004'>0.74643E+02</wgt>
<wgt id='6005'>0.76920E+02</wgt>
<wgt id='6006'>0.77498E+02</wgt>
<wgt id='6007'>0.77088E+02</wgt>
<wgt id='6008'>0.77396E+02</wgt>
<wgt id='6009'>0.76488E+02</wgt>
<wgt id='6010'>0.76899E+02</wgt>
<wgt id='6011'>0.77702E+02</wgt>
<wgt id='6012'>0.78259E+02</wgt>
<wgt id='6013'>0.76735E+02</wgt>
<wgt id='6014'>0.77359E+02</wgt>
<wgt id='6015'>0.76959E+02</wgt>
<wgt id='6016'>0.78199E+02</wgt>
<wgt id='6017'>0.77513E+02</wgt>
<wgt id='6018'>0.78086E+02</wgt>
<wgt id='6019'>0.74146E+02</wgt>
<wgt id='6020'>0.77663E+02</wgt>
<wgt id='6021'>0.76819E+02</wgt>
<wgt id='6022'>0.76926E+02</wgt>
<wgt id='6023'>0.76728E+02</wgt>
<wgt id='6024'>0.78162E+02</wgt>
<wgt id='6025'>0.77782E+02</wgt>
<wgt id='6026'>0.77241E+02</wgt>
<wgt id='6027'>0.76957E+02</wgt>
<wgt id='6028'>0.77061E+02</wgt>
<wgt id='6029'>0.77089E+02</wgt>
<wgt id='6030'>0.77166E+02</wgt>
<wgt id='6031'>0.76864E+02</wgt>
<wgt id='6032'>0.77445E+02</wgt>
<wgt id='6033'>0.77369E+02</wgt>
<wgt id='6034'>0.77376E+02</wgt>
<wgt id='6035'>0.77242E+02</wgt>
<wgt id='6036'>0.77123E+02</wgt>
<wgt id='6037'>0.76819E+02</wgt>
<wgt id='6038'>0.78542E+02</wgt>
<wgt id='6039'>0.77247E+02</wgt>
<wgt id='6040'>0.77521E+02</wgt>
<wgt id='6041'>0.76832E+02</wgt>
<wgt id='6042'>0.78653E+02</wgt>
<wgt id='7000'>0.42136E+02</wgt>
<wgt id='7001'>0.42177E+02</wgt>
<wgt id='7002'>0.42019E+02</wgt>
<wgt id='7003'>0.41941E+02</wgt>
<wgt id='7004'>0.42255E+02</wgt>
<wgt id='7005'>0.42115E+02</wgt>
<wgt id='7006'>0.42080E+02</wgt>
<wgt id='7007'>0.41759E+02</wgt>
<wgt id='7008'>0.42433E+02</wgt>
<wgt id='7009'>0.42246E+02</wgt>
<wgt id='7010'>0.41952E+02</wgt>
<wgt id='7011'>0.42324E+02</wgt>
<wgt id='7012'>0.41875E+02</wgt>
<wgt id='7013'>0.42046E+02</wgt>
<wgt id='7014'>0.42148E+02</wgt>
<wgt id='7015'>0.42161E+02</wgt>
<wgt id='7016'>0.41975E+02</wgt>
<wgt id='7017'>0.42043E+02</wgt>
<wgt id='7018'>0.42153E+02</wgt>
<wgt id='7019'>0.42272E+02</wgt>
<wgt id='7020'>0.41926E+02</wgt>
<wgt id='7021'>0.43220E+02</wgt>
<wgt id='7022'>0.41006E+02</wgt>
<wgt id='7023'>0.43976E+02</wgt>
<wgt id='7024'>0.40491E+02</wgt>
<wgt id='7025'>0.47097E+02</wgt>
<wgt id='7026'>0.38393E+02</wgt>
<wgt id='7027'>0.45489E+02</wgt>
<wgt id='7028'>0.39328E+02</wgt>
<wgt id='8000'>0.72845E+02</wgt>
<wgt id='8001'>0.72836E+02</wgt>
<wgt id='8002'>0.72867E+02</wgt>
<wgt id='8003'>0.72665E+02</wgt>
<wgt id='8004'>0.72852E+02</wgt>
<wgt id='8005'>0.73203E+02</wgt>
<wgt id='8006'>0.72220E+02</wgt>
<wgt id='8007'>0.73224E+02</wgt>
<wgt id='8008'>0.72823E+02</wgt>
<wgt id='8009'>0.72326E+02</wgt>
<wgt id='8010'>0.72858E+02</wgt>
<wgt id='8011'>0.72977E+02</wgt>
<wgt id='8012'>0.72763E+02</wgt>
<wgt id='8013'>0.72886E+02</wgt>
<wgt id='8014'>0.72954E+02</wgt>
<wgt id='8015'>0.72889E+02</wgt>
<wgt id='8016'>0.72567E+02</wgt>
<wgt id='8017'>0.72758E+02</wgt>
<wgt id='8018'>0.72447E+02</wgt>
<wgt id='8019'>0.72640E+02</wgt>
<wgt id='8020'>0.74086E+02</wgt>
<wgt id='8021'>0.72783E+02</wgt>
<wgt id='8022'>0.72205E+02</wgt>
<wgt id='8023'>0.72302E+02</wgt>
<wgt id='8024'>0.72823E+02</wgt>
<wgt id='8025'>0.72685E+02</wgt>
<wgt id='8026'>0.73252E+02</wgt>
<wgt id='8027'>0.72389E+02</wgt>
<wgt id='8028'>0.73375E+02</wgt>
<wgt id='8029'>0.72803E+02</wgt>
<wgt id='3000'>0.81104E+02</wgt>
<wgt id='3001'>0.88248E+02</wgt>
<wgt id='3002'>0.82691E+02</wgt>
<wgt id='3003'>0.75634E+02</wgt>
<wgt id='3004'>0.86187E+02</wgt>
<wgt id='3005'>0.84614E+02</wgt>
<wgt id='3006'>0.84117E+02</wgt>
<wgt id='3007'>0.81364E+02</wgt>
<wgt id='3008'>0.78147E+02</wgt>
<wgt id='3009'>0.73831E+02</wgt>
<wgt id='3010'>0.80503E+02</wgt>
<wgt id='3011'>0.80055E+02</wgt>
<wgt id='3012'>0.83370E+02</wgt>
<wgt id='3013'>0.86360E+02</wgt>
<wgt id='3014'>0.81685E+02</wgt>
<wgt id='3015'>0.79014E+02</wgt>
<wgt id='3016'>0.79998E+02</wgt>
<wgt id='3017'>0.84860E+02</wgt>
<wgt id='3018'>0.78939E+02</wgt>
<wgt id='3019'>0.88035E+02</wgt>
<wgt id='3020'>0.77112E+02</wgt>
<wgt id='3021'>0.78363E+02</wgt>
<wgt id='3022'>0.80823E+02</wgt>
<wgt id='3023'>0.83586E+02</wgt>
<wgt id='3024'>0.83147E+02</wgt>
<wgt id='3025'>0.77312E+02</wgt>
<wgt id='3026'>0.77749E+02</wgt>
<wgt id='3027'>0.84899E+02</wgt>
<wgt id='3028'>0.82743E+02</wgt>
<wgt id='3029'>0.81948E+02</wgt>
<wgt id='3030'>0.84853E+02</wgt>
<wgt id='3031'>0.78993E+02</wgt>
<wgt id='3032'>0.81114E+02</wgt>
<wgt id='3033'>0.81868E+02</wgt>
<wgt id='3034'>0.80701E+02</wgt>
<wgt id='3035'>0.78197E+02</wgt>
<wgt id='3036'>0.77597E+02</wgt>
<wgt id='3037'>0.79614E+02</wgt>
<wgt id='3038'>0.78614E+02</wgt>
<wgt id='3039'>0.79436E+02</wgt>
<wgt id='3040'>0.77181E+02</wgt>
<wgt id='3041'>0.79968E+02</wgt>
<wgt id='3042'>0.80804E+02</wgt>
<wgt id='3043'>0.89279E+02</wgt>
<wgt id='3044'>0.81330E+02</wgt>
<wgt id='3045'>0.83813E+02</wgt>
<wgt id='3046'>0.79004E+02</wgt>
<wgt id='3047'>0.81665E+02</wgt>
<wgt id='3048'>0.82912E+02</wgt>
<wgt id='3049'>0.85050E+02</wgt>
<wgt id='3050'>0.83270E+02</wgt>
<wgt id='3051'>0.81920E+02</wgt>
<wgt id='3052'>0.77617E+02</wgt>
<wgt id='3053'>0.78610E+02</wgt>
<wgt id='3054'>0.85228E+02</wgt>
<wgt id='3055'>0.78480E+02</wgt>
<wgt id='3056'>0.88413E+02</wgt>
<wgt id='3057'>0.84464E+02</wgt>
<wgt id='3058'>0.80286E+02</wgt>
<wgt id='3059'>0.76743E+02</wgt>
<wgt id='3060'>0.81208E+02</wgt>
<wgt id='3061'>0.77800E+02</wgt>
<wgt id='3062'>0.84327E+02</wgt>
<wgt id='3063'>0.83654E+02</wgt>
<wgt id='3064'>0.82746E+02</wgt>
<wgt id='3065'>0.78502E+02</wgt>
<wgt id='3066'>0.81910E+02</wgt>
<wgt id='3067'>0.86766E+02</wgt>
<wgt id='3068'>0.82812E+02</wgt>
<wgt id='3069'>0.80419E+02</wgt>
<wgt id='3070'>0.78952E+02</wgt>
<wgt id='3071'>0.84830E+02</wgt>
<wgt id='3072'>0.87364E+02</wgt>
<wgt id='3073'>0.71422E+02</wgt>
<wgt id='3074'>0.74776E+02</wgt>
<wgt id='3075'>0.82159E+02</wgt>
<wgt id='3076'>0.85123E+02</wgt>
<wgt id='3077'>0.81201E+02</wgt>
<wgt id='3078'>0.77116E+02</wgt>
<wgt id='3079'>0.79585E+02</wgt>
<wgt id='3080'>0.83442E+02</wgt>
<wgt id='3081'>0.79018E+02</wgt>
<wgt id='3082'>0.79998E+02</wgt>
<wgt id='3083'>0.78948E+02</wgt>
<wgt id='3084'>0.82933E+02</wgt>
<wgt id='3085'>0.73310E+02</wgt>
<wgt id='3086'>0.87989E+02</wgt>
<wgt id='3087'>0.76104E+02</wgt>
<wgt id='3088'>0.86726E+02</wgt>
<wgt id='3089'>0.69320E+02</wgt>
<wgt id='3090'>0.78024E+02</wgt>
<wgt id='3091'>0.81838E+02</wgt>
<wgt id='3092'>0.69989E+02</wgt>
<wgt id='3093'>0.82007E+02</wgt>
<wgt id='3094'>0.84467E+02</wgt>
<wgt id='3095'>0.78872E+02</wgt>
<wgt id='3096'>0.80915E+02</wgt>
<wgt id='3097'>0.86136E+02</wgt>
<wgt id='3098'>0.86704E+02</wgt>
<wgt id='3099'>0.80245E+02</wgt>
<wgt id='3100'>0.80031E+02</wgt>
<wgt id='3200'>0.82922E+02</wgt>
<wgt id='3201'>0.81964E+02</wgt>
<wgt id='3202'>0.87330E+02</wgt>
<wgt id='3203'>0.78341E+02</wgt>
<wgt id='3204'>0.88206E+02</wgt>
<wgt id='3205'>0.84807E+02</wgt>
<wgt id='3206'>0.82386E+02</wgt>
<wgt id='3207'>0.80059E+02</wgt>
<wgt id='3208'>0.84297E+02</wgt>
<wgt id='3209'>0.83904E+02</wgt>
<wgt id='3210'>0.82168E+02</wgt>
<wgt id='3211'>0.83481E+02</wgt>
<wgt id='3212'>0.76713E+02</wgt>
<wgt id='3213'>0.82882E+02</wgt>
<wgt id='3214'>0.85438E+02</wgt>
<wgt id='3215'>0.82118E+02</wgt>
<wgt id='3216'>0.87272E+02</wgt>
<wgt id='3217'>0.77412E+02</wgt>
<wgt id='3218'>0.78933E+02</wgt>
<wgt id='3219'>0.78649E+02</wgt>
<wgt id='3220'>0.80297E+02</wgt>
<wgt id='3221'>0.87564E+02</wgt>
<wgt id='3222'>0.86397E+02</wgt>
<wgt id='3223'>0.84798E+02</wgt>
<wgt id='3224'>0.85343E+02</wgt>
<wgt id='3225'>0.87313E+02</wgt>
<wgt id='3226'>0.79286E+02</wgt>
<wgt id='3227'>0.86343E+02</wgt>
<wgt id='3228'>0.85196E+02</wgt>
<wgt id='3229'>0.82431E+02</wgt>
<wgt id='3230'>0.84909E+02</wgt>
<wgt id='3231'>0.83889E+02</wgt>
<wgt id='3232'>0.86371E+02</wgt>
<wgt id='3233'>0.87977E+02</wgt>
<wgt id='3234'>0.82294E+02</wgt>
<wgt id='3235'>0.86626E+02</wgt>
<wgt id='3236'>0.83803E+02</wgt>
<wgt id='3237'>0.85046E+02</wgt>
<wgt id='3238'>0.82159E+02</wgt>
<wgt id='3239'>0.85796E+02</wgt>
<wgt id='3240'>0.76236E+02</wgt>
<wgt id='3241'>0.84102E+02</wgt>
<wgt id='3242'>0.81435E+02</wgt>
<wgt id='3243'>0.81924E+02</wgt>
<wgt id='3244'>0.87006E+02</wgt>
<wgt id='3245'>0.77814E+02</wgt>
<wgt id='3246'>0.86829E+02</wgt>
<wgt id='3247'>0.81800E+02</wgt>
<wgt id='3248'>0.80979E+02</wgt>
<wgt id='3249'>0.89204E+02</wgt>
<wgt id='3250'>0.81862E+02</wgt>
<wgt id='3251'>0.79528E+02</wgt>
<wgt id='3252'>0.86660E+02</wgt>
<wgt id='3253'>0.81086E+02</wgt>
<wgt id='3254'>0.78765E+02</wgt>
<wgt id='3255'>0.83680E+02</wgt>
<wgt id='3256'>0.88640E+02</wgt>
<wgt id='3257'>0.80390E+02</wgt>
<wgt id='3258'>0.82897E+02</wgt>
<wgt id='3259'>0.88889E+02</wgt>
<wgt id='3260'>0.84589E+02</wgt>
<wgt id='3261'>0.90700E+02</wgt>
<wgt id='3262'>0.75465E+02</wgt>
<wgt id='3263'>0.78516E+02</wgt>
<wgt id='3264'>0.77612E+02</wgt>
<wgt id='3265'>0.84705E+02</wgt>
<wgt id='3266'>0.85046E+02</wgt>
<wgt id='3267'>0.83199E+02</wgt>
<wgt id='3268'>0.90607E+02</wgt>
<wgt id='3269'>0.85117E+02</wgt>
<wgt id='3270'>0.76903E+02</wgt>
<wgt id='3271'>0.79372E+02</wgt>
<wgt id='3272'>0.78813E+02</wgt>
<wgt id='3273'>0.82416E+02</wgt>
<wgt id='3274'>0.83564E+02</wgt>
<wgt id='3275'>0.83572E+02</wgt>
<wgt id='3276'>0.83076E+02</wgt>
<wgt id='3277'>0.83400E+02</wgt>
<wgt id='3278'>0.83420E+02</wgt>
<wgt id='3279'>0.85147E+02</wgt>
<wgt id='3280'>0.82964E+02</wgt>
<wgt id='3281'>0.84833E+02</wgt>
<wgt id='3282'>0.84673E+02</wgt>
<wgt id='3283'>0.78125E+02</wgt>
<wgt id='3284'>0.79913E+02</wgt>
<wgt id='3285'>0.84900E+02</wgt>
<wgt id='3286'>0.73700E+02</wgt>
<wgt id='3287'>0.79788E+02</wgt>
<wgt id='3288'>0.78387E+02</wgt>
<wgt id='3289'>0.79981E+02</wgt>
<wgt id='3290'>0.87300E+02</wgt>
<wgt id='3291'>0.79337E+02</wgt>
<wgt id='3292'>0.77407E+02</wgt>
<wgt id='3293'>0.84024E+02</wgt>
<wgt id='3294'>0.83035E+02</wgt>
<wgt id='3295'>0.80048E+02</wgt>
<wgt id='3296'>0.78913E+02</wgt>
<wgt id='3297'>0.89796E+02</wgt>
<wgt id='3298'>0.84235E+02</wgt>
<wgt id='3299'>0.81624E+02</wgt>
<wgt id='3300'>0.84532E+02</wgt>
<wgt id='3301'>0.82776E+02</wgt>
<wgt id='3302'>0.83511E+02</wgt>
<wgt id='3400'>0.77898E+02</wgt>
<wgt id='3401'>0.75183E+02</wgt>
<wgt id='3402'>0.77122E+02</wgt>
<wgt id='3403'>0.80332E+02</wgt>
<wgt id='3404'>0.78522E+02</wgt>
<wgt id='3405'>0.77419E+02</wgt>
<wgt id='3406'>0.79403E+02</wgt>
<wgt id='3407'>0.75087E+02</wgt>
<wgt id='3408'>0.76518E+02</wgt>
<wgt id='3409'>0.76428E+02</wgt>
<wgt id='3410'>0.79706E+02</wgt>
<wgt id='3411'>0.75390E+02</wgt>
<wgt id='3412'>0.71773E+02</wgt>
<wgt id='3413'>0.76793E+02</wgt>
<wgt id='3414'>0.79209E+02</wgt>
<wgt id='3415'>0.79732E+02</wgt>
<wgt id='3416'>0.83938E+02</wgt>
<wgt id='3417'>0.79637E+02</wgt>
<wgt id='3418'>0.79821E+02</wgt>
<wgt id='3419'>0.78910E+02</wgt>
<wgt id='3420'>0.79272E+02</wgt>
<wgt id='3421'>0.78684E+02</wgt>
<wgt id='3422'>0.74597E+02</wgt>
<wgt id='3423'>0.76528E+02</wgt>
<wgt id='3424'>0.79293E+02</wgt>
<wgt id='3425'>0.80963E+02</wgt>
<wgt id='3426'>0.77864E+02</wgt>
<wgt id='3427'>0.85243E+02</wgt>
<wgt id='3428'>0.79825E+02</wgt>
<wgt id='3429'>0.79688E+02</wgt>
<wgt id='3430'>0.72449E+02</wgt>
<wgt id='3431'>0.77324E+02</wgt>
<wgt id='3432'>0.83400E+02</wgt>
<wgt id='3433'>0.78616E+02</wgt>
<wgt id='3434'>0.77669E+02</wgt>
<wgt id='3435'>0.73173E+02</wgt>
<wgt id='3436'>0.77838E+02</wgt>
<wgt id='3437'>0.81670E+02</wgt>
<wgt id='3438'>0.79536E+02</wgt>
<wgt id='3439'>0.76820E+02</wgt>
<wgt id='3440'>0.80380E+02</wgt>
<wgt id='3441'>0.80109E+02</wgt>
<wgt id='3442'>0.86640E+02</wgt>
<wgt id='3443'>0.78236E+02</wgt>
<wgt id='3444'>0.76400E+02</wgt>
<wgt id='3445'>0.74291E+02</wgt>
<wgt id='3446'>0.77189E+02</wgt>
<wgt id='3447'>0.73980E+02</wgt>
<wgt id='3448'>0.76478E+02</wgt>
<wgt id='3449'>0.81076E+02</wgt>
<wgt id='3450'>0.76229E+02</wgt>
<wgt id='3451'>0.72664E+02</wgt>
<wgt id='3452'>0.77084E+02</wgt>
<wgt id='3453'>0.80509E+02</wgt>
<wgt id='3454'>0.70528E+02</wgt>
<wgt id='3455'>0.76277E+02</wgt>
<wgt id='3456'>0.74275E+02</wgt>
<wgt id='3457'>0.74621E+02</wgt>
<wgt id='3458'>0.79128E+02</wgt>
<wgt id='3459'>0.76596E+02</wgt>
<wgt id='3460'>0.74002E+02</wgt>
<wgt id='3461'>0.80606E+02</wgt>
<wgt id='3462'>0.78444E+02</wgt>
<wgt id='3463'>0.77464E+02</wgt>
<wgt id='3464'>0.77533E+02</wgt>
<wgt id='3465'>0.74311E+02</wgt>
<wgt id='3466'>0.75568E+02</wgt>
<wgt id='3467'>0.77975E+02</wgt>
<wgt id='3468'>0.82870E+02</wgt>
<wgt id='3469'>0.76030E+02</wgt>
<wgt id='3470'>0.83216E+02</wgt>
<wgt id='3471'>0.77486E+02</wgt>
<wgt id='3472'>0.73715E+02</wgt>
<wgt id='3473'>0.78374E+02</wgt>
<wgt id='3474'>0.80261E+02</wgt>
<wgt id='3475'>0.76842E+02</wgt>
<wgt id='3476'>0.79196E+02</wgt>
<wgt id='3477'>0.77509E+02</wgt>
<wgt id='3478'>0.76673E+02</wgt>
<wgt id='3479'>0.79655E+02</wgt>
<wgt id='3480'>0.82260E+02</wgt>
<wgt id='3481'>0.81190E+02</wgt>
<wgt id='3482'>0.76664E+02</wgt>
<wgt id='3483'>0.76168E+02</wgt>
<wgt id='3484'>0.78773E+02</wgt>
<wgt id='3485'>0.79053E+02</wgt>
<wgt id='3486'>0.80987E+02</wgt>
<wgt id='3487'>0.74756E+02</wgt>
<wgt id='3488'>0.76768E+02</wgt>
<wgt id='3489'>0.77821E+02</wgt>
<wgt id='3490'>0.76448E+02</wgt>
<wgt id='3491'>0.77342E+02</wgt>
<wgt id='3492'>0.76958E+02</wgt>
<wgt id='3493'>0.75913E+02</wgt>
<wgt id='3494'>0.81536E+02</wgt>
<wgt id='3495'>0.75969E+02</wgt>
<wgt id='3496'>0.79495E+02</wgt>
<wgt id='3497'>0.80595E+02</wgt>
<wgt id='3498'>0.78736E+02</wgt>
<wgt id='3499'>0.76211E+02</wgt>
<wgt id='3500'>0.73113E+02</wgt>
</rwgt>
</event>
<event>
     13 322200  8.11039E+01  6.05335E+01 -1.00000E+00  1.32622E-01
       2    -1     0     0   503     0  0.000000000E+00  0.000000000E+00  1.388622102E+03  1.388622102E+03  0.000000000E+00  0.00000E+00  9.000E+00
      21    -1     0     0   502   503  0.000000000E+00  0.000000000E+00 -3.712119333E+01  3.712119333E+01  0.000000000E+00  0.00000E+00  9.000E+00
       6     2     1     2   502     0 -5.875672645E+00 -1.521822852E+00  8.496673858E+02  8.671524561E+02  1.731527538E+02  0.00000E+00  9.000E+00
      -6     2     1     2     0   512  5.317105966E+01 -3.625962821E+01  3.944068974E+02  4.352830308E+02  1.725473672E+02  0.00000E+00  9.000E+00
       2     1     1     2   512     0 -4.729538702E+01  3.778145106E+01  1.074266258E+02  1.233078088E+02  2.100000000E-01  0.00000E+00  9.000E+00
      24     2     3     3     0     0 -3.770149061E+01 -5.921432039E+01  5.455333194E+02  5.559219291E+02  8.071462444E+01  0.00000E+00  9.000E+00
       5     1     3     3   502     0  3.182581797E+01  5.769249754E+01  3.041340664E+02  3.112305269E+02  5.060000000E+00  0.00000E+00 -1.000E+00
     -24     2     4     4     0     0  5.960652116E+01  3.494205851E+01  1.764175591E+02  2.058139684E+02  8.038874067E+01  0.00000E+00  9.000E+00
      -5     1     4     4     0   512 -6.435461493E+00 -7.120168672E+01  2.179893383E+02  2.294690624E+02  5.060000000E+00  0.00000E+00  1.000E+00
     -15     1     6     6     0     0 -4.686460507E+01 -3.703378502E+01  5.071167172E+02  5.106254156E+02  1.777000000E+00  0.00000E+00  1.000E+00
      16     1     6     6     0     0  9.163114455E+00 -2.218053538E+01  3.841660212E+01  4.529651349E+01  0.000000000E+00  0.00000E+00 -1.000E+00
      11     1     8     8     0     0  5.190107176E+01  5.945494072E+01  1.462569915E+02  1.661918133E+02  5.100000000E-04  0.00000E+00 -1.000E+00
     -12     1     8     8     0     0  7.705449396E+00 -2.451288220E+01  3.016056760E+01  3.962215520E+01  0.000000000E+00  0.00000E+00  1.000E+00
#rwgt            1           1   419.24003418509449               10       29168           0
<rwgt>
<wgt id='1001'>0.81104E+02</wgt>
<wgt id='1002'>0.83602E+02</wgt>
<wgt id='1003'>0.77924E+02</wgt>
<wgt id='1004'>0.67973E+02</wgt>
<wgt id='1005'>0.69580E+02</wgt>
<wgt id='1006'>0.65838E+02</wgt>
<wgt id='1007'>0.98563E+02</wgt>
<wgt id='1008'>0.10246E+03</wgt>
<wgt id='1009'>0.93767E+02</wgt>
<wgt id='2000'>0.81104E+02</wgt>
<wgt id='2001'>0.81034E+02</wgt>
<wgt id='2002'>0.81072E+02</wgt>
<wgt id='2003'>0.81058E+02</wgt>
<wgt id='2004'>0.81529E+02</wgt>
<wgt id='2005'>0.80778E+02</wgt>
<wgt id='2006'>0.81205E+02</wgt>
<wgt id='2007'>0.81159E+02</wgt>
<wgt id='2008'>0.81029E+02</wgt>
<wgt id='2009'>0.81378E+02</wgt>
<wgt id='2010'>0.81091E+02</wgt>
<wgt id='2011'>0.81275E+02</wgt>
<wgt id='2012'>0.81372E+02</wgt>
<wgt id='2013'>0.81016E+02</wgt>
<wgt id='2014'>0.81102E+02</wgt>
<wgt id='2015'>0.81268E+02</wgt>
<wgt id='2016'>0.80943E+02</wgt>
<wgt id='2017'>0.81001E+02</wgt>
<wgt id='2018'>0.80680E+02</wgt>
<wgt id='2019'>0.80818E+02</wgt>
<wgt id='2020'>0.80725E+02</wgt>
<wgt id='2021'>0.81221E+02</wgt>
<wgt id='2022'>0.81015E+02</wgt>
<wgt id='2023'>0.80995E+02</wgt>
<wgt id='2024'>0.80520E+02</wgt>
<wgt id='2025'>0.81402E+02</wgt>
<wgt id='2026'>0.81280E+02</wgt>
<wgt id='2027'>0.81675E+02</wgt>
<wgt id='2028'>0.80432E+02</wgt>
<wgt id='2029'>0.80794E+02</wgt>
<wgt id='2030'>0.81235E+02</wgt>
<wgt id='2031'>0.80771E+02</wgt>
<wgt id='2032'>0.81042E+02</wgt>
<wgt id='2033'>0.80894E+02</wgt>
<wgt id='2034'>0.80775E+02</wgt>
<wgt id='2035'>0.81094E+02</wgt>
<wgt id='2036'>0.81188E+02</wgt>
<wgt id='2037'>0.80911E+02</wgt>
<wgt id='2038'>0.81027E+02</wgt>
<wgt id='2039'>0.80953E+02</wgt>
<wgt id='2040'>0.80940E+02</wgt>
<wgt id='2041'>0.80943E+02</wgt>
<wgt id='2042'>0.81287E+02</wgt>
<wgt id='2043'>0.81102E+02</wgt>
<wgt id='2044'>0.81223E+02</wgt>
<wgt id='2045'>0.81118E+02</wgt>
<wgt id='2046'>0.81021E+02</wgt>
<wgt id='2047'>0.81139E+02</wgt>
<wgt id='2048'>0.81107E+02</wgt>
<wgt id='2049'>0.81027E+02</wgt>
<wgt id='2050'>0.80981E+02</wgt>
<wgt id='2051'>0.81010E+02</wgt>
<wgt id='2052'>0.81289E+02</wgt>
<wgt id='2053'>0.81124E+02</wgt>
<wgt id='2054'>0.81075E+02</wgt>
<wgt id='2055'>0.81020E+02</wgt>
<wgt id='2056'>0.81038E+02</wgt>
<wgt id='2057'>0.81153E+02</wgt>
<wgt id='2058'>0.81172E+02</wgt>
<wgt id='2059'>0.81118E+02</wgt>
<wgt id='2060'>0.81055E+02</wgt>
<wgt id='2061'>0.81029E+02</wgt>
<wgt id='2062'>0.81222E+02</wgt>
<wgt id='2063'>0.81109E+02</wgt>
<wgt id='2064'>0.81117E+02</wgt>
<wgt id='2065'>0.81196E+02</wgt>
<wgt id='2066'>0.81065E+02</wgt>
<wgt id='2067'>0.81054E+02</wgt>
<wgt id='2068'>0.81194E+02</wgt>
<wgt id='2069'>0.81095E+02</wgt>
<wgt id='2070'>0.81127E+02</wgt>
<wgt id='2071'>0.81058E+02</wgt>
<wgt id='2072'>0.81070E+02</wgt>
<wgt id='2073'>0.81140E+02</wgt>
<wgt id='2074'>0.81077E+02</wgt>
<wgt id='2075'>0.81097E+02</wgt>
<wgt id='2076'>0.81095E+02</wgt>
<wgt id='2077'>0.81170E+02</wgt>
<wgt id='2078'>0.81118E+02</wgt>
<wgt id='2079'>0.81067E+02</wgt>
<wgt id='2080'>0.81118E+02</wgt>
<wgt id='2081'>0.81083E+02</wgt>
<wgt id='2082'>0.81115E+02</wgt>
<wgt id='2083'>0.81184E+02</wgt>
<wgt id='2084'>0.81098E+02</wgt>
<wgt id='2085'>0.81127E+02</wgt>
<wgt id='2086'>0.81089E+02</wgt>
<wgt id='2087'>0.81119E+02</wgt>
<wgt id='2088'>0.81097E+02</wgt>
<wgt id='2089'>0.81078E+02</wgt>
<wgt id='2090'>0.81134E+02</wgt>
<wgt id='2091'>0.81119E+02</wgt>
<wgt id='2092'>0.81154E+02</wgt>
<wgt id='2093'>0.81064E+02</wgt>
<wgt id='2094'>0.81094E+02</wgt>
<wgt id='2095'>0.81138E+02</wgt>
<wgt id='2096'>0.81081E+02</wgt>
<wgt id='2097'>0.81128E+02</wgt>
<wgt id='2098'>0.81109E+02</wgt>
<wgt id='2099'>0.81124E+02</wgt>
<wgt id='2100'>0.81104E+02</wgt>
<wgt id='2101'>0.78763E+02</wgt>
<wgt id='2102'>0.83096E+02</wgt>
<wgt id='2200'>0.80734E+02</wgt>
<wgt id='2201'>0.69287E+02</wgt>
<wgt id='2202'>0.71578E+02</wgt>
<wgt id='2203'>0.74158E+02</wgt>
<wgt id='2204'>0.75825E+02</wgt>
<wgt id='2205'>0.79417E+02</wgt>
<wgt id='2206'>0.82243E+02</wgt>
<wgt id='2207'>0.85591E+02</wgt>
<wgt id='2208'>0.88682E+02</wgt>
<wgt id='2300'>0.87092E+02</wgt>
<wgt id='2301'>0.87168E+02</wgt>
<wgt id='2302'>0.87042E+02</wgt>
<wgt id='2303'>0.87041E+02</wgt>
<wgt id='2304'>0.87373E+02</wgt>
<wgt id='2305'>0.87066E+02</wgt>
<wgt id='2306'>0.87069E+02</wgt>
<wgt id='2307'>0.86976E+02</wgt>
<wgt id='2308'>0.86944E+02</wgt>
<wgt id='2309'>0.86803E+02</wgt>
<wgt id='2310'>0.86819E+02</wgt>
<wgt id='2311'>0.87195E+02</wgt>
<wgt id='2312'>0.87259E+02</wgt>
<wgt id='2313'>0.87131E+02</wgt>
<wgt id='2314'>0.86986E+02</wgt>
<wgt id='2315'>0.87062E+02</wgt>
<wgt id='2316'>0.87203E+02</wgt>
<wgt id='2317'>0.87023E+02</wgt>
<wgt id='2318'>0.87198E+02</wgt>
<wgt id='2319'>0.87112E+02</wgt>
<wgt id='2320'>0.87151E+02</wgt>
<wgt id='2321'>0.87185E+02</wgt>
<wgt id='2322'>0.86985E+02</wgt>
<wgt id='2323'>0.86915E+02</wgt>
<wgt id='2324'>0.87002E+02</wgt>
<wgt id='2325'>0.87134E+02</wgt>
<wgt id='2326'>0.87085E+02</wgt>
<wgt id='2327'>0.87155E+02</wgt>
<wgt id='2328'>0.86911E+02</wgt>
<wgt id='2329'>0.87117E+02</wgt>
<wgt id='2330'>0.87447E+02</wgt>
<wgt id='2331'>0.87171E+02</wgt>
<wgt id='2332'>0.86915E+02</wgt>
<wgt id='2333'>0.86904E+02</wgt>
<wgt id='2334'>0.87138E+02</wgt>
<wgt id='2335'>0.86298E+02</wgt>
<wgt id='2336'>0.87053E+02</wgt>
<wgt id='2337'>0.87535E+02</wgt>
<wgt id='2338'>0.87075E+02</wgt>
<wgt id='2339'>0.86898E+02</wgt>
<wgt id='2340'>0.87597E+02</wgt>
<wgt id='2341'>0.87401E+02</wgt>
<wgt id='2342'>0.86924E+02</wgt>
<wgt id='2343'>0.86899E+02</wgt>
<wgt id='2344'>0.87043E+02</wgt>
<wgt id='2345'>0.86992E+02</wgt>
<wgt id='2346'>0.87618E+02</wgt>
<wgt id='2347'>0.87151E+02</wgt>
<wgt id='2348'>0.87102E+02</wgt>
<wgt id='2349'>0.87132E+02</wgt>
<wgt id='2350'>0.86694E+02</wgt>
<wgt id='2351'>0.87212E+02</wgt>
<wgt id='2352'>0.86834E+02</wgt>
<wgt id='2353'>0.87175E+02</wgt>
<wgt id='2354'>0.87243E+02</wgt>
<wgt id='2355'>0.86746E+02</wgt>
<wgt id='2356'>0.87014E+02</wgt>
<wgt id='2357'>0.87180E+02</wgt>
<wgt id='2358'>0.86902E+02</wgt>
<wgt id='2359'>0.87051E+02</wgt>
<wgt id='2360'>0.87298E+02</wgt>
<wgt id='2361'>0.87162E+02</wgt>
<wgt id='2362'>0.87219E+02</wgt>
<wgt id='2363'>0.86953E+02</wgt>
<wgt id='2364'>0.87115E+02</wgt>
<wgt id='2365'>0.86940E+02</wgt>
<wgt id='2366'>0.87121E+02</wgt>
<wgt id='2367'>0.86851E+02</wgt>
<wgt id='2368'>0.87126E+02</wgt>
<wgt id='2369'>0.87013E+02</wgt>
<wgt id='2370'>0.87044E+02</wgt>
<wgt id='2371'>0.87009E+02</wgt>
<wgt id='2372'>0.87172E+02</wgt>
<wgt id='2373'>0.87090E+02</wgt>
<wgt id='2374'>0.87205E+02</wgt>
<wgt id='2375'>0.87172E+02</wgt>
<wgt id='2376'>0.87138E+02</wgt>
<wgt id='2377'>0.87085E+02</wgt>
<wgt id='2378'>0.87158E+02</wgt>
<wgt id='2379'>0.86990E+02</wgt>
<wgt id='2380'>0.87037E+02</wgt>
<wgt id='2381'>0.87062E+02</wgt>
<wgt id='2382'>0.87022E+02</wgt>
<wgt id='2383'>0.87074E+02</wgt>
<wgt id='2384'>0.87062E+02</wgt>
<wgt id='2385'>0.87115E+02</wgt>
<wgt id='2386'>0.87121E+02</wgt>
<wgt id='2387'>0.87019E+02</wgt>
<wgt id='2388'>0.87029E+02</wgt>
<wgt id='2389'>0.87061E+02</wgt>
<wgt id='2390'>0.87044E+02</wgt>
<wgt id='2391'>0.87020E+02</wgt>
<wgt id='2392'>0.87099E+02</wgt>
<wgt id='2393'>0.87114E+02</wgt>
<wgt id='2394'>0.87092E+02</wgt>
<wgt id='2395'>0.87123E+02</wgt>
<wgt id='2396'>0.87058E+02</wgt>
<wgt id='2397'>0.87074E+02</wgt>
<wgt id='2398'>0.87086E+02</wgt>
<wgt id='2399'>0.87124E+02</wgt>
<wgt id='2400'>0.87118E+02</wgt>
<wgt id='2401'>0.84860E+02</wgt>
<wgt id='2402'>0.89872E+02</wgt>
<wgt id='2500'>0.82866E+02</wgt>
<wgt id='2501'>0.87767E+02</wgt>
<wgt id='2600'>0.79130E+02</wgt>
<wgt id='2601'>0.78841E+02</wgt>
<wgt id='2602'>0.79327E+02</wgt>
<wgt id='2603'>0.79122E+02</wgt>
<wgt id='2604'>0.79218E+02</wgt>
<wgt id='2605'>0.79044E+02</wgt>
<wgt id='2606'>0.79273E+02</wgt>
<wgt id='2607'>0.79167E+02</wgt>
<wgt id='2608'>0.79293E+02</wgt>
<wgt id='2609'>0.79040E+02</wgt>
<wgt id='2610'>0.79071E+02</wgt>
<wgt id='2611'>0.79121E+02</wgt>
<wgt id='2612'>0.79081E+02</wgt>
<wgt id='2613'>0.79165E+02</wgt>
<wgt id='2614'>0.79037E+02</wgt>
<wgt id='2615'>0.78979E+02</wgt>
<wgt id='2616'>0.79211E+02</wgt>
<wgt id='2617'>0.78928E+02</wgt>
<wgt id='2618'>0.79220E+02</wgt>
<wgt id='2619'>0.79211E+02</wgt>
<wgt id='2620'>0.78904E+02</wgt>
<wgt id='2621'>0.79281E+02</wgt>
<wgt id='2622'>0.79443E+02</wgt>
<wgt id='2623'>0.79081E+02</wgt>
<wgt id='2624'>0.79049E+02</wgt>
<wgt id='2625'>0.79338E+02</wgt>
<wgt id='2626'>0.79226E+02</wgt>
<wgt id='2627'>0.79285E+02</wgt>
<wgt id='2628'>0.79052E+02</wgt>
<wgt id='2629'>0.79271E+02</wgt>
<wgt id='2630'>0.79420E+02</wgt>
<wgt id='2631'>0.79069E+02</wgt>
<wgt id='2632'>0.78847E+02</wgt>
<wgt id='2633'>0.79057E+02</wgt>
<wgt id='2634'>0.79022E+02</wgt>
<wgt id='2635'>0.78900E+02</wgt>
<wgt id='2636'>0.79215E+02</wgt>
<wgt id='2637'>0.79090E+02</wgt>
<wgt id='2638'>0.79028E+02</wgt>
<wgt id='2639'>0.79146E+02</wgt>
<wgt id='2640'>0.79126E+02</wgt>
<wgt id='2641'>0.79012E+02</wgt>
<wgt id='2642'>0.79116E+02</wgt>
<wgt id='2643'>0.79046E+02</wgt>
<wgt id='2644'>0.79123E+02</wgt>
<wgt id='2645'>0.79070E+02</wgt>
<wgt id='2646'>0.79104E+02</wgt>
<wgt id='2647'>0.79120E+02</wgt>
<wgt id='2648'>0.79132E+02</wgt>
<wgt id='2649'>0.79158E+02</wgt>
<wgt id='2650'>0.79158E+02</wgt>
<wgt id='2651'>0.77620E+02</wgt>
<wgt id='2652'>0.80238E+02</wgt>
<wgt id='2700'>0.76343E+02</wgt>
<wgt id='2701'>0.77620E+02</wgt>
<wgt id='2702'>0.78402E+02</wgt>
<wgt id='2703'>0.79866E+02</wgt>
<wgt id='2704'>0.80238E+02</wgt>
<wgt id='2705'>0.81882E+02</wgt>
<wgt id='2800'>0.81743E+02</wgt>
<wgt id='4000'>0.83825E+02</wgt>
<wgt id='4001'>0.83950E+02</wgt>
<wgt id='4002'>0.83833E+02</wgt>
<wgt id='4003'>0.82618E+02</wgt>
<wgt id='4004'>0.85243E+02</wgt>
<wgt id='4005'>0.84390E+02</wgt>
<wgt id='4006'>0.83514E+02</wgt>
<wgt id='4007'>0.83998E+02</wgt>
<wgt id='4008'>0.83733E+02</wgt>
<wgt id='4009'>0.83005E+02</wgt>
<wgt id='4010'>0.84148E+02</wgt>
<wgt id='4011'>0.84498E+02</wgt>
<wgt id='4012'>0.82968E+02</wgt>
<wgt id='4013'>0.83693E+02</wgt>
<wgt id='4014'>0.84090E+02</wgt>
<wgt id='4015'>0.84407E+02</wgt>
<wgt id='4016'>0.84650E+02</wgt>
<wgt id='4017'>0.83958E+02</wgt>
<wgt id='4018'>0.83695E+02</wgt>
<wgt id='4019'>0.83468E+02</wgt>
<wgt id='4020'>0.84507E+02</wgt>
<wgt id='4021'>0.84129E+02</wgt>
<wgt id='4022'>0.83301E+02</wgt>
<wgt id='4023'>0.84348E+02</wgt>
<wgt id='4024'>0.84205E+02</wgt>
<wgt id='4025'>0.83622E+02</wgt>
<wgt id='4026'>0.84489E+02</wgt>
<wgt id='4027'>0.84908E+02</wgt>
<wgt id='4028'>0.82898E+02</wgt>
<wgt id='4029'>0.85482E+02</wgt>
<wgt id='4030'>0.82703E+02</wgt>
<wgt id='4031'>0.83849E+02</wgt>
<wgt id='4032'>0.85480E+02</wgt>
<wgt id='4033'>0.84712E+02</wgt>
<wgt id='4034'>0.83177E+02</wgt>
<wgt id='4035'>0.83656E+02</wgt>
<wgt id='4036'>0.83955E+02</wgt>
<wgt id='4037'>0.86819E+02</wgt>
<wgt id='4038'>0.81529E+02</wgt>
<wgt id='4039'>0.85506E+02</wgt>
<wgt id='4040'>0.82394E+02</wgt>
<wgt id='4041'>0.84579E+02</wgt>
<wgt id='4042'>0.83084E+02</wgt>
<wgt id='4043'>0.84183E+02</wgt>
<wgt id='4044'>0.82875E+02</wgt>
<wgt id='4045'>0.83385E+02</wgt>
<wgt id='4046'>0.84051E+02</wgt>
<wgt id='4047'>0.84708E+02</wgt>
<wgt id='4048'>0.83849E+02</wgt>
<wgt id='4049'>0.83972E+02</wgt>
<wgt id='4050'>0.83804E+02</wgt>
<wgt id='4051'>0.83655E+02</wgt>
<wgt id='4052'>0.84284E+02</wgt>
<wgt id='4053'>0.83415E+02</wgt>
<wgt id='4054'>0.83681E+02</wgt>
<wgt id='4055'>0.84236E+02</wgt>
<wgt id='4056'>0.83385E+02</wgt>
<wgt id='4057'>0.83303E+02</wgt>
<wgt id='4058'>0.84172E+02</wgt>
<wgt id='4100'>0.84142E+02</wgt>
<wgt id='4101'>0.83928E+02</wgt>
<wgt id='4102'>0.83810E+02</wgt>
<wgt id='4103'>0.83852E+02</wgt>
<wgt id='4200'>0.82763E+02</wgt>
<wgt id='4201'>0.82607E+02</wgt>
<wgt id='4202'>0.83002E+02</wgt>
<wgt id='4203'>0.82601E+02</wgt>
<wgt id='4204'>0.82722E+02</wgt>
<wgt id='4205'>0.82769E+02</wgt>
<wgt id='4206'>0.82911E+02</wgt>
<wgt id='4207'>0.83623E+02</wgt>
<wgt id='4208'>0.82204E+02</wgt>
<wgt id='4209'>0.82221E+02</wgt>
<wgt id='4210'>0.83091E+02</wgt>
<wgt id='4211'>0.83043E+02</wgt>
<wgt id='4212'>0.82544E+02</wgt>
<wgt id='4213'>0.82821E+02</wgt>
<wgt id='4214'>0.82652E+02</wgt>
<wgt id='4215'>0.82723E+02</wgt>
<wgt id='4216'>0.83139E+02</wgt>
<wgt id='4217'>0.82943E+02</wgt>
<wgt id='4218'>0.82562E+02</wgt>
<wgt id='4219'>0.82957E+02</wgt>
<wgt id='4220'>0.82657E+02</wgt>
<wgt id='4221'>0.82559E+02</wgt>
<wgt id='4222'>0.83271E+02</wgt>
<wgt id='4223'>0.81273E+02</wgt>
<wgt id='4224'>0.83022E+02</wgt>
<wgt id='4225'>0.82297E+02</wgt>
<wgt id='4226'>0.83640E+02</wgt>
<wgt id='4227'>0.83322E+02</wgt>
<wgt id='4228'>0.82288E+02</wgt>
<wgt id='4229'>0.81383E+02</wgt>
<wgt id='4230'>0.83999E+02</wgt>
<wgt id='4231'>0.83143E+02</wgt>
<wgt id='4232'>0.82138E+02</wgt>
<wgt id='4233'>0.82851E+02</wgt>
<wgt id='4234'>0.82076E+02</wgt>
<wgt id='4235'>0.83813E+02</wgt>
<wgt id='4236'>0.81645E+02</wgt>
<wgt id='4237'>0.84512E+02</wgt>
<wgt id='4238'>0.80421E+02</wgt>
<wgt id='4239'>0.82165E+02</wgt>
<wgt id='4240'>0.83339E+02</wgt>
<wgt id='4241'>0.83009E+02</wgt>
<wgt id='4242'>0.82486E+02</wgt>
<wgt id='4243'>0.83348E+02</wgt>
<wgt id='4244'>0.82142E+02</wgt>
<wgt id='4245'>0.83151E+02</wgt>
<wgt id='4246'>0.81953E+02</wgt>
<wgt id='4247'>0.81933E+02</wgt>
<wgt id='4248'>0.83241E+02</wgt>
<wgt id='4249'>0.83527E+02</wgt>
<wgt id='4250'>0.81816E+02</wgt>
<wgt id='4251'>0.84182E+02</wgt>
<wgt id='4252'>0.81822E+02</wgt>
<wgt id='4253'>0.83523E+02</wgt>
<wgt id='4254'>0.81711E+02</wgt>
<wgt id='4255'>0.84585E+02</wgt>
<wgt id='4256'>0.81872E+02</wgt>
<wgt id='4257'>0.81444E+02</wgt>
<wgt id='4258'>0.83139E+02</wgt>
<wgt id='4300'>0.82809E+02</wgt>
<wgt id='4301'>0.84457E+02</wgt>
<wgt id='5000'>0.83124E+02</wgt>
<wgt id='5001'>0.83170E+02</wgt>
<wgt id='5002'>0.83064E+02</wgt>
<wgt id='5003'>0.83139E+02</wgt>
<wgt id='5004'>0.83110E+02</wgt>
<wgt id='5005'>0.83140E+02</wgt>
<wgt id='5006'>0.83097E+02</wgt>
<wgt id='5007'>0.83233E+02</wgt>
<wgt id='5008'>0.83035E+02</wgt>
<wgt id='5009'>0.83203E+02</wgt>
<wgt id='5010'>0.83042E+02</wgt>
<wgt id='5011'>0.83388E+02</wgt>
<wgt id='5012'>0.82869E+02</wgt>
<wgt id='5013'>0.83176E+02</wgt>
<wgt id='5014'>0.83087E+02</wgt>
<wgt id='5015'>0.82752E+02</wgt>
<wgt id='5016'>0.82752E+02</wgt>
<wgt id='5017'>0.83443E+02</wgt>
<wgt id='5018'>0.82909E+02</wgt>
<wgt id='5019'>0.83430E+02</wgt>
<wgt id='5020'>0.82704E+02</wgt>
<wgt id='5021'>0.83225E+02</wgt>
<wgt id='5022'>0.82963E+02</wgt>
<wgt id='5023'>0.83065E+02</wgt>
<wgt id='5024'>0.83264E+02</wgt>
<wgt id='5025'>0.82909E+02</wgt>
<wgt id='5026'>0.83363E+02</wgt>
<wgt id='5027'>0.83184E+02</wgt>
<wgt id='5028'>0.82961E+02</wgt>
<wgt id='5029'>0.84150E+02</wgt>
<wgt id='5030'>0.82546E+02</wgt>
<wgt id='5031'>0.82524E+02</wgt>
<wgt id='5032'>0.84952E+02</wgt>
<wgt id='5033'>0.83034E+02</wgt>
<wgt id='5034'>0.83220E+02</wgt>
<wgt id='5035'>0.83133E+02</wgt>
<wgt id='5036'>0.83113E+02</wgt>
<wgt id='5037'>0.82815E+02</wgt>
<wgt id='5038'>0.83298E+02</wgt>
<wgt id='5039'>0.83277E+02</wgt>
<wgt id='5040'>0.82750E+02</wgt>
<wgt id='5041'>0.82588E+02</wgt>
<wgt id='5042'>0.83675E+02</wgt>
<wgt id='5043'>0.83304E+02</wgt>
<wgt id='5044'>0.83010E+02</wgt>
<wgt id='5045'>0.83538E+02</wgt>
<wgt id='5046'>0.82330E+02</wgt>
<wgt id='5047'>0.83234E+02</wgt>
<wgt id='5048'>0.82644E+02</wgt>
<wgt id='5049'>0.83007E+02</wgt>
<wgt id='5050'>0.83418E+02</wgt>
<wgt id='5051'>0.83412E+02</wgt>
<wgt id='5052'>0.82933E+02</wgt>
<wgt id='5053'>0.83438E+02</wgt>
<wgt id='5054'>0.83272E+02</wgt>
<wgt id='5055'>0.83164E+02</wgt>
<wgt id='5056'>0.83243E+02</wgt>
<wgt id='5057'>0.82730E+02</wgt>
<wgt id='5058'>0.83400E+02</wgt>
<wgt id='5059'>0.82947E+02</wgt>
<wgt id='5060'>0.83232E+02</wgt>
<wgt id='5061'>0.83365E+02</wgt>
<wgt id='5062'>0.83421E+02</wgt>
<wgt id='5063'>0.83380E+02</wgt>
<wgt id='5064'>0.83294E+02</wgt>
<wgt id='5100'>0.83124E+02</wgt>
<wgt id='5101'>0.83109E+02</wgt>
<wgt id='6000'>0.82510E+02</wgt>
<wgt id='6001'>0.82024E+02</wgt>
<wgt id='6002'>0.81676E+02</wgt>
<wgt id='6003'>0.82247E+02</wgt>
<wgt id='6004'>0.83024E+02</wgt>
<wgt id='6005'>0.81894E+02</wgt>
<wgt id='6006'>0.82491E+02</wgt>
<wgt id='6007'>0.81817E+02</wgt>
<wgt id='6008'>0.83004E+02</wgt>
<wgt id='6009'>0.82336E+02</wgt>
<wgt id='6010'>0.83064E+02</wgt>
<wgt id='6011'>0.82543E+02</wgt>
<wgt id='6012'>0.82703E+02</wgt>
<wgt id='6013'>0.82045E+02</wgt>
<wgt id='6014'>0.82091E+02</wgt>
<wgt id='6015'>0.81919E+02</wgt>
<wgt id='6016'>0.83058E+02</wgt>
<wgt id='6017'>0.82037E+02</wgt>
<wgt id='6018'>0.81764E+02</wgt>
<wgt id='6019'>0.82669E+02</wgt>
<wgt id='6020'>0.82724E+02</wgt>
<wgt id='6021'>0.82397E+02</wgt>
<wgt id='6022'>0.82783E+02</wgt>
<wgt id='6023'>0.82429E+02</wgt>
<wgt id='6024'>0.82627E+02</wgt>
<wgt id='6025'>0.83120E+02</wgt>
<wgt id='6026'>0.82354E+02</wgt>
<wgt id='6027'>0.82602E+02</wgt>
<wgt id='6028'>0.81918E+02</wgt>
<wgt id='6029'>0.82205E+02</wgt>
<wgt id='6030'>0.81829E+02</wgt>
<wgt id='6031'>0.82235E+02</wgt>
<wgt id='6032'>0.82475E+02</wgt>
<wgt id='6033'>0.82391E+02</wgt>
<wgt id='6034'>0.82911E+02</wgt>
<wgt id='6035'>0.82573E+02</wgt>
<wgt id='6036'>0.83526E+02</wgt>
<wgt id='6037'>0.82482E+02</wgt>
<wgt id='6038'>0.82377E+02</wgt>
<wgt id='6039'>0.82745E+02</wgt>
<wgt id='6040'>0.82538E+02</wgt>
<wgt id='6041'>0.81257E+02</wgt>
<wgt id='6042'>0.84065E+02</wgt>
<wgt id='7000'>0.80413E+02</wgt>
<wgt id='7001'>0.80194E+02</wgt>
<wgt id='7002'>0.80343E+02</wgt>
<wgt id='7003'>0.80297E+02</wgt>
<wgt id='7004'>0.80240E+02</wgt>
<wgt id='7005'>0.80341E+02</wgt>
<wgt id='7006'>0.80196E+02</wgt>
<wgt id='7007'>0.80677E+02</wgt>
<wgt id='7008'>0.79871E+02</wgt>
<wgt id='7009'>0.79932E+02</wgt>
<wgt id='7010'>0.80616E+02</wgt>
<wgt id='7011'>0.80539E+02</wgt>
<wgt id='7012'>0.80007E+02</wgt>
<wgt id='7013'>0.80229E+02</wgt>
<wgt id='7014'>0.80306E+02</wgt>
<wgt id='7015'>0.80512E+02</wgt>
<wgt id='7016'>0.79935E+02</wgt>
<wgt id='7017'>0.80063E+02</wgt>
<wgt id='7018'>0.80481E+02</wgt>
<wgt id='7019'>0.80764E+02</wgt>
<wgt id='7020'>0.79791E+02</wgt>
<wgt id='7021'>0.81619E+02</wgt>
<wgt id='7022'>0.78964E+02</wgt>
<wgt id='7023'>0.78983E+02</wgt>
<wgt id='7024'>0.81560E+02</wgt>
<wgt id='7025'>0.78610E+02</wgt>
<wgt id='7026'>0.81846E+02</wgt>
<wgt id='7027'>0.79546E+02</wgt>
<wgt id='7028'>0.81083E+02</wgt>
<wgt id='8000'>0.80543E+02</wgt>
<wgt id='8001'>0.80530E+02</wgt>
<wgt id='8002'>0.80566E+02</wgt>
<wgt id='8003'>0.80543E+02</wgt>
<wgt id='8004'>0.80540E+02</wgt>
<wgt id='8005'>0.80380E+02</wgt>
<wgt id='8006'>0.80628E+02</wgt>
<wgt id='8007'>0.80677E+02</wgt>
<wgt id='8008'>0.80708E+02</wgt>
<wgt id='8009'>0.80876E+02</wgt>
<wgt id='8010'>0.80460E+02</wgt>
<wgt id='8011'>0.80576E+02</wgt>
<wgt id='8012'>0.80285E+02</wgt>
<wgt id='8013'>0.80387E+02</wgt>
<wgt id='8014'>0.80729E+02</wgt>
<wgt id='8015'>0.80482E+02</wgt>
<wgt id='8016'>0.80679E+02</wgt>
<wgt id='8017'>0.80680E+02</wgt>
<wgt id='8018'>0.80865E+02</wgt>
<wgt id='8019'>0.80307E+02</wgt>
<wgt id='8020'>0.80952E+02</wgt>
<wgt id='8021'>0.80358E+02</wgt>
<wgt id='8022'>0.81282E+02</wgt>
<wgt id='8023'>0.80175E+02</wgt>
<wgt id='8024'>0.79865E+02</wgt>
<wgt id='8025'>0.79987E+02</wgt>
<wgt id='8026'>0.80506E+02</wgt>
<wgt id='8027'>0.80718E+02</wgt>
<wgt id='8028'>0.80559E+02</wgt>
<wgt id='8029'>0.82611E+02</wgt>
<wgt id='3000'>0.81104E+02</wgt>
<wgt id='3001'>0.83850E+02</wgt>
<wgt id='3002'>0.80323E+02</wgt>
<wgt id='3003'>0.81955E+02</wgt>
<wgt id='3004'>0.81448E+02</wgt>
<wgt id='3005'>0.81876E+02</wgt>
<wgt id='3006'>0.80851E+02</wgt>
<wgt id='3007'>0.78415E+02</wgt>
<wgt id='3008'>0.78003E+02</wgt>
<wgt id='3009'>0.79819E+02</wgt>
<wgt id='3010'>0.86910E+02</wgt>
<wgt id='3011'>0.82879E+02</wgt>
<wgt id='3012'>0.79002E+02</wgt>
<wgt id='3013'>0.81628E+02</wgt>
<wgt id='3014'>0.80405E+02</wgt>
<wgt id='3015'>0.79429E+02</wgt>
<wgt id='3016'>0.80568E+02</wgt>
<wgt id='3017'>0.80661E+02</wgt>
<wgt id='3018'>0.79085E+02</wgt>
<wgt id='3019'>0.79827E+02</wgt>
<wgt id='3020'>0.80319E+02</wgt>
<wgt id='3021'>0.80439E+02</wgt>
<wgt id='3022'>0.79352E+02</wgt>
<wgt id='3023'>0.79401E+02</wgt>
<wgt id='3024'>0.81187E+02</wgt>
<wgt id='3025'>0.78895E+02</wgt>
<wgt id='3026'>0.80684E+02</wgt>
<wgt id='3027'>0.83310E+02</wgt>
<wgt id='3028'>0.77919E+02</wgt>
<wgt id='3029'>0.80584E+02</wgt>
<wgt id='3030'>0.79776E+02</wgt>
<wgt id='3031'>0.86504E+02</wgt>
<wgt id='3032'>0.79828E+02</wgt>
<wgt id='3033'>0.79031E+02</wgt>
<wgt id='3034'>0.81459E+02</wgt>
<wgt id='3035'>0.85307E+02</wgt>
<wgt id='3036'>0.81614E+02</wgt>
<wgt id='3037'>0.81221E+02</wgt>
<wgt id='3038'>0.81229E+02</wgt>
<wgt id='3039'>0.80957E+02</wgt>
<wgt id='3040'>0.79959E+02</wgt>
<wgt id='3041'>0.80762E+02</wgt>
<wgt id='3042'>0.80883E+02</wgt>
<wgt id='3043'>0.82418E+02</wgt>
<wgt id='3044'>0.81702E+02</wgt>
<wgt id='3045'>0.80850E+02</wgt>
<wgt id='3046'>0.80905E+02</wgt>
<wgt id='3047'>0.82310E+02</wgt>
<wgt id='3048'>0.82991E+02</wgt>
<wgt id='3049'>0.82286E+02</wgt>
<wgt id='3050'>0.84182E+02</wgt>
<wgt id='3051'>0.80151E+02</wgt>
<wgt id='3052'>0.79833E+02</wgt>
<wgt id='3053'>0.82494E+02</wgt>
<wgt id='3054'>0.79512E+02</wgt>
<wgt id='3055'>0.81237E+02</wgt>
<wgt id='3056'>0.80290E+02</wgt>
<wgt id='3057'>0.80471E+02</wgt>
<wgt id='3058'>0.82979E+02</wgt>
<wgt id='3059'>0.78208E+02</wgt>
<wgt id='3060'>0.80730E+02</wgt>
<wgt id='3061'>0.81626E+02</wgt>
<wgt id='3062'>0.82667E+02</wgt>
<wgt id='3063'>0.82125E+02</wgt>
<wgt id='3064'>0.82615E+02</wgt>
<wgt id='3065'>0.79150E+02</wgt>
<wgt id='3066'>0.82047E+02</wgt>
<wgt id='3067'>0.80575E+02</wgt>
<wgt id='3068'>0.79656E+02</wgt>
<wgt id='3069'>0.80399E+02</wgt>
<wgt id='3070'>0.82639E+02</wgt>
<wgt id='3071'>0.80852E+02</wgt>
<wgt id='3072'>0.82210E+02</wgt>
<wgt id='3073'>0.80056E+02</wgt>
<wgt id='3074'>0.79595E+02</wgt>
<wgt id='3075'>0.81091E+02</wgt>
<wgt id='3076'>0.83915E+02</wgt>
<wgt id='3077'>0.82139E+02</wgt>
<wgt id='3078'>0.80232E+02</wgt>
<wgt id='3079'>0.81065E+02</wgt>
<wgt id='3080'>0.84784E+02</wgt>
<wgt id='3081'>0.82245E+02</wgt>
<wgt id='3082'>0.80568E+02</wgt>
<wgt id='3083'>0.80882E+02</wgt>
<wgt id='3084'>0.79465E+02</wgt>
<wgt id='3085'>0.81340E+02</wgt>
<wgt id='3086'>0.83081E+02</wgt>
<wgt id='3087'>0.79791E+02</wgt>
<wgt id='3088'>0.81018E+02</wgt>
<wgt id='3089'>0.81941E+02</wgt>
<wgt id='3090'>0.79393E+02</wgt>
<wgt id='3091'>0.79471E+02</wgt>
<wgt id='3092'>0.81534E+02</wgt>
<wgt id='3093'>0.80749E+02</wgt>
<wgt id='3094'>0.81622E+02</wgt>
<wgt id='3095'>0.79849E+02</wgt>
<wgt id='3096'>0.80399E+02</wgt>
<wgt id='3097'>0.85958E+02</wgt>
<wgt id='3098'>0.80640E+02</wgt>
<wgt id='3099'>0.79214E+02</wgt>
<wgt id='3100'>0.80249E+02</wgt>
<wgt id='3200'>0.79290E+02</wgt>
<wgt id='3201'>0.78369E+02</wgt>
<wgt id='3202'>0.77339E+02</wgt>
<wgt id='3203'>0.79737E+02</wgt>
<wgt id='3204'>0.79284E+02</wgt>
<wgt id='3205'>0.79473E+02</wgt>
<wgt id='3206'>0.80524E+02</wgt>
<wgt id='3207'>0.79896E+02</wgt>
<wgt id='3208'>0.79413E+02</wgt>
<wgt id='3209'>0.79188E+02</wgt>
<wgt id='3210'>0.79414E+02</wgt>
<wgt id='3211'>0.79025E+02</wgt>
<wgt id='3212'>0.79494E+02</wgt>
<wgt id='3213'>0.80346E+02</wgt>
<wgt id='3214'>0.78913E+02</wgt>
<wgt id='3215'>0.79128E+02</wgt>
<wgt id='3216'>0.79856E+02</wgt>
<wgt id='3217'>0.79917E+02</wgt>
<wgt id='3218'>0.80537E+02</wgt>
<wgt id='3219'>0.78976E+02</wgt>
<wgt id='3220'>0.78441E+02</wgt>
<wgt id='3221'>0.78944E+02</wgt>
<wgt id='3222'>0.80004E+02</wgt>
<wgt id='3223'>0.79584E+02</wgt>
<wgt id='3224'>0.79106E+02</wgt>
<wgt id='3225'>0.80010E+02</wgt>
<wgt id='3226'>0.78343E+02</wgt>
<wgt id='3227'>0.78431E+02</wgt>
<wgt id='3228'>0.79342E+02</wgt>
<wgt id='3229'>0.80419E+02</wgt>
<wgt id='3230'>0.79181E+02</wgt>
<wgt id='3231'>0.79510E+02</wgt>
<wgt id='3232'>0.79520E+02</wgt>
<wgt id='3233'>0.79055E+02</wgt>
<wgt id='3234'>0.77565E+02</wgt>
<wgt id='3235'>0.79287E+02</wgt>
<wgt id='3236'>0.80208E+02</wgt>
<wgt id='3237'>0.79694E+02</wgt>
<wgt id='3238'>0.79189E+02</wgt>
<wgt id='3239'>0.78556E+02</wgt>
<wgt id='3240'>0.77552E+02</wgt>
<wgt id='3241'>0.79846E+02</wgt>
<wgt id='3242'>0.79813E+02</wgt>
<wgt id='3243'>0.80736E+02</wgt>
<wgt id='3244'>0.80378E+02</wgt>
<wgt id='3245'>0.80030E+02</wgt>
<wgt id='3246'>0.77811E+02</wgt>
<wgt id='3247'>0.77560E+02</wgt>
<wgt id='3248'>0.79008E+02</wgt>
<wgt id='3249'>0.78378E+02</wgt>
<wgt id='3250'>0.78860E+02</wgt>
<wgt id='3251'>0.78835E+02</wgt>
<wgt id='3252'>0.80494E+02</wgt>
<wgt id='3253'>0.80160E+02</wgt>
<wgt id='3254'>0.79188E+02</wgt>
<wgt id='3255'>0.77735E+02</wgt>
<wgt id='3256'>0.79031E+02</wgt>
<wgt id='3257'>0.78846E+02</wgt>
<wgt id='3258'>0.77981E+02</wgt>
<wgt id='3259'>0.77731E+02</wgt>
<wgt id='3260'>0.79478E+02</wgt>
<wgt id='3261'>0.77817E+02</wgt>
<wgt id='3262'>0.80988E+02</wgt>
<wgt id='3263'>0.79461E+02</wgt>
<wgt id='3264'>0.79970E+02</wgt>
<wgt id='3265'>0.80415E+02</wgt>
<wgt id='3266'>0.79694E+02</wgt>
<wgt id='3267'>0.79412E+02</wgt>
<wgt id='3268'>0.77735E+02</wgt>
<wgt id='3269'>0.78743E+02</wgt>
<wgt id='3270'>0.81473E+02</wgt>
<wgt id='3271'>0.78945E+02</wgt>
<wgt id='3272'>0.79233E+02</wgt>
<wgt id='3273'>0.79343E+02</wgt>
<wgt id='3274'>0.78911E+02</wgt>
<wgt id='3275'>0.80428E+02</wgt>
<wgt id='3276'>0.78316E+02</wgt>
<wgt id='3277'>0.79361E+02</wgt>
<wgt id='3278'>0.80400E+02</wgt>
<wgt id='3279'>0.79590E+02</wgt>
<wgt id='3280'>0.79216E+02</wgt>
<wgt id='3281'>0.80149E+02</wgt>
<wgt id='3282'>0.79301E+02</wgt>
<wgt id='3283'>0.79851E+02</wgt>
<wgt id='3284'>0.78079E+02</wgt>
<wgt id='3285'>0.79783E+02</wgt>
<wgt id='3286'>0.78006E+02</wgt>
<wgt id='3287'>0.81928E+02</wgt>
<wgt id='3288'>0.77947E+02</wgt>
<wgt id='3289'>0.80070E+02</wgt>
<wgt id='3290'>0.77759E+02</wgt>
<wgt id='3291'>0.79264E+02</wgt>
<wgt id='3292'>0.79390E+02</wgt>
<wgt id='3293'>0.78983E+02</wgt>
<wgt id='3294'>0.79843E+02</wgt>
<wgt id='3295'>0.79290E+02</wgt>
<wgt id='3296'>0.79352E+02</wgt>
<wgt id='3297'>0.79955E+02</wgt>
<wgt id='3298'>0.77756E+02</wgt>
<wgt id='3299'>0.79997E+02</wgt>
<wgt id='3300'>0.80087E+02</wgt>
<wgt id='3301'>0.77620E+02</wgt>
<wgt id='3302'>0.80238E+02</wgt>
<wgt id='3400'>0.78239E+02</wgt>
<wgt id='3401'>0.78889E+02</wgt>
<wgt id='3402'>0.76300E+02</wgt>
<wgt id='3403'>0.78929E+02</wgt>
<wgt id='3404'>0.79520E+02</wgt>
<wgt id='3405'>0.78879E+02</wgt>
<wgt id='3406'>0.79412E+02</wgt>
<wgt id='3407'>0.78219E+02</wgt>
<wgt id='3408'>0.78285E+02</wgt>
<wgt id='3409'>0.77882E+02</wgt>
<wgt id='3410'>0.78977E+02</wgt>
<wgt id='3411'>0.79679E+02</wgt>
<wgt id='3412'>0.78722E+02</wgt>
<wgt id='3413'>0.77820E+02</wgt>
<wgt id='3414'>0.78143E+02</wgt>
<wgt id='3415'>0.78489E+02</wgt>
<wgt id='3416'>0.78017E+02</wgt>
<wgt id='3417'>0.79005E+02</wgt>
<wgt id='3418'>0.77619E+02</wgt>
<wgt id='3419'>0.77733E+02</wgt>
<wgt id='3420'>0.77826E+02</wgt>
<wgt id='3421'>0.77444E+02</wgt>
<wgt id='3422'>0.77373E+02</wgt>
<wgt id='3423'>0.80082E+02</wgt>
<wgt id='3424'>0.78368E+02</wgt>
<wgt id='3425'>0.77279E+02</wgt>
<wgt id='3426'>0.77374E+02</wgt>
<wgt id='3427'>0.76754E+02</wgt>
<wgt id='3428'>0.78139E+02</wgt>
<wgt id='3429'>0.77144E+02</wgt>
<wgt id='3430'>0.77425E+02</wgt>
<wgt id='3431'>0.78664E+02</wgt>
<wgt id='3432'>0.79306E+02</wgt>
<wgt id='3433'>0.78370E+02</wgt>
<wgt id='3434'>0.79872E+02</wgt>
<wgt id='3435'>0.79367E+02</wgt>
<wgt id='3436'>0.78127E+02</wgt>
<wgt id='3437'>0.79969E+02</wgt>
<wgt id='3438'>0.77813E+02</wgt>
<wgt id='3439'>0.76144E+02</wgt>
<wgt id='3440'>0.78655E+02</wgt>
<wgt id='3441'>0.78724E+02</wgt>
<wgt id='3442'>0.78325E+02</wgt>
<wgt id='3443'>0.79433E+02</wgt>
<wgt id='3444'>0.77393E+02</wgt>
<wgt id='3445'>0.77551E+02</wgt>
<wgt id='3446'>0.78804E+02</wgt>
<wgt id='3447'>0.77711E+02</wgt>
<wgt id='3448'>0.79901E+02</wgt>
<wgt id='3449'>0.78449E+02</wgt>
<wgt id='3450'>0.77415E+02</wgt>
<wgt id='3451'>0.78814E+02</wgt>
<wgt id='3452'>0.77484E+02</wgt>
<wgt id='3453'>0.76563E+02</wgt>
<wgt id='3454'>0.78447E+02</wgt>
<wgt id='3455'>0.78812E+02</wgt>
<wgt id='3456'>0.78677E+02</wgt>
<wgt id='3457'>0.77999E+02</wgt>
<wgt id='3458'>0.77481E+02</wgt>
<wgt id='3459'>0.78411E+02</wgt>
<wgt id='3460'>0.78141E+02</wgt>
<wgt id='3461'>0.77535E+02</wgt>
<wgt id='3462'>0.78602E+02</wgt>
<wgt id='3463'>0.77374E+02</wgt>
<wgt id='3464'>0.78016E+02</wgt>
<wgt id='3465'>0.78865E+02</wgt>
<wgt id='3466'>0.79417E+02</wgt>
<wgt id='3467'>0.78161E+02</wgt>
<wgt id='3468'>0.77438E+02</wgt>
<wgt id='3469'>0.76747E+02</wgt>
<wgt id='3470'>0.77521E+02</wgt>
<wgt id='3471'>0.77356E+02</wgt>
<wgt id='3472'>0.76071E+02</wgt>
<wgt id='3473'>0.80277E+02</wgt>
<wgt id='3474'>0.77449E+02</wgt>
<wgt id='3475'>0.78767E+02</wgt>
<wgt id='3476'>0.77930E+02</wgt>
<wgt id='3477'>0.77123E+02</wgt>
<wgt id='3478'>0.79334E+02</wgt>
<wgt id='3479'>0.77669E+02</wgt>
<wgt id='3480'>0.79092E+02</wgt>
<wgt id='3481'>0.79319E+02</wgt>
<wgt id='3482'>0.78656E+02</wgt>
<wgt id='3483'>0.78424E+02</wgt>
<wgt id='3484'>0.77329E+02</wgt>
<wgt id='3485'>0.77326E+02</wgt>
<wgt id='3486'>0.76228E+02</wgt>
<wgt id='3487'>0.76896E+02</wgt>
<wgt id='3488'>0.77936E+02</wgt>
<wgt id='3489'>0.77188E+02</wgt>
<wgt id='3490'>0.79139E+02</wgt>
<wgt id='3491'>0.80470E+02</wgt>
<wgt id='3492'>0.77565E+02</wgt>
<wgt id='3493'>0.80290E+02</wgt>
<wgt id='3494'>0.76690E+02</wgt>
<wgt id='3495'>0.79761E+02</wgt>
<wgt id='3496'>0.77241E+02</wgt>
<wgt id='3497'>0.78092E+02</wgt>
<wgt id='3498'>0.79755E+02</wgt>
<wgt id='3499'>0.77986E+02</wgt>
<wgt id='3500'>0.80320E+02</wgt>
</rwgt>
</event>
<event>
     13 322200  8.11039E+01  5.97827E+01 -1.00000E+00  1.32903E-01
      21    -1     0     0   502   503  0.000000000E+00  0.000000000E+00  1.024774575E+03  1.024774575E+03  0.000000000E+00  0.00000E+00  9.000E+00
      21    -1     0     0   504   505  0.000000000E+00  0.000000000E+00 -5.807642410E+01  5.807642410E+01  0.000000000E+00  0.00000E+00  9.000E+00
       6     2     1     2   502     0  5.103087228E+01 -4.103687217E+01  1.687640628E+02  2.498103099E+02  1.721502461E+02  0.00000E+00  9.000E+00
      -6     2     1     2     0   505 -4.326398258E+01 -1.823915337E+01  5.753735944E+02  6.025908136E+02  1.727902678E+02  0.00000E+00  9.000E+00
      21     1     1     2   504   503 -7.766889700E+00  5.927602554E+01  2.225604932E+02  2.304498751E+02  3.814697266E-06  0.00000E+00  9.000E+00
      24     2     3     3     0     0  4.808444418E+00  3.689722680E+00  1.297343714E+01  8.118853263E+01  7.991578423E+01  0.00000E+00  9.000E+00
       5     1     3     3   502     0  4.622242786E+01 -4.472659485E+01  1.557906257E+02  1.686217773E+02  5.060000000E+00  0.00000E+00 -1.000E+00
     -24     2     4     4     0     0 -6.767259999E+01  3.227966149E+01  2.644810024E+02  2.866355342E+02  8.116755198E+01  0.00000E+00  9.000E+00
      -5     1     4     4     0   505  2.440861741E+01 -5.051881486E+01  3.108925920E+02  3.159552795E+02  5.060000000E+00  0.00000E+00  1.000E+00
     -13     1     6     6     0     0 -3.598809403E+01  1.280047583E+00  1.756008507E+01  4.006431322E+01  1.057000000E-01  0.00000E+00  1.000E+00
      14     1     6     6     0     0  4.079653845E+01  2.409675097E+00 -4.586647931E+00  4.112421942E+01  0.000000000E+00  0.00000E+00 -1.000E+00
      15     1     8     8     0     0  1.214855234E+01  2.097490219E+01  1.069224900E+02  1.096499451E+02  1.777000000E+00  0.00000E+00 -1.000E+00
     -16     1     8     8     0     0 -7.982115233E+01  1.130475930E+01  1.575585124E+02  1.769855891E+02  0.000000000E+00  0.00000E+00  1.000E+00
#rwgt            1           1   570.90213803131724               10       29508           0
<rwgt>
<wgt id='1001'>0.81104E+02</wgt>
<wgt id='1002'>0.76249E+02</wgt>
<wgt id='1003'>0.88511E+02</wgt>
<wgt id='1004'>0.72731E+02</wgt>
<wgt id='1005'>0.68495E+02</wgt>
<wgt id='1006'>0.78905E+02</wgt>
<wgt id='1007'>0.90201E+02</wgt>
<wgt id='1008'>0.84597E+02</wgt>
<wgt id='1009'>0.99261E+02</wgt>
<wgt id='2000'>0.81104E+02</wgt>
<wgt id='2001'>0.80928E+02</wgt>
<wgt id='2002'>0.80946E+02</wgt>
<wgt id='2003'>0.81233E+02</wgt>
<wgt id='2004'>0.81323E+02</wgt>
<wgt id='2005'>0.80978E+02</wgt>
<wgt id='2006'>0.81318E+02</wgt>
<wgt id='2007'>0.81179E+02</wgt>
<wgt id='2008'>0.81133E+02</wgt>
<wgt id='2009'>0.81276E+02</wgt>
<wgt id='2010'>0.81088E+02</wgt>
<wgt id='2011'>0.81159E+02</wgt>
<wgt id='2012'>0.81251E+02</wgt>
<wgt id='2013'>0.81180E+02</wgt>
<wgt id='2014'>0.81190E+02</wgt>
<wgt id='2015'>0.81093E+02</wgt>
<wgt id='2016'>0.81233E+02</wgt>
<wgt id='2017'>0.81208E+02</wgt>
<wgt id='2018'>0.81050E+02</wgt>
<wgt id='2019'>0.80518E+02</wgt>
<wgt id='2020'>0.81129E+02</wgt>
<wgt id='2021'>0.81103E+02</wgt>
<wgt id='2022'>0.80977E+02</wgt>
<wgt id='2023'>0.81416E+02</wgt>
<wgt id='2024'>0.80611E+02</wgt>
<wgt id='2025'>0.81312E+02</wgt>
<wgt id='2026'>0.81007E+02</wgt>
<wgt id='2027'>0.81191E+02</wgt>
<wgt id='2028'>0.81232E+02</wgt>
<wgt id='2029'>0.80975E+02</wgt>
<wgt id='2030'>0.81162E+02</wgt>
<wgt id='2031'>0.80711E+02</wgt>
<wgt id='2032'>0.81029E+02</wgt>
<wgt id='2033'>0.80964E+02</wgt>
<wgt id='2034'>0.80774E+02</wgt>
<wgt id='2035'>0.81200E+02</wgt>
<wgt id='2036'>0.81293E+02</wgt>
<wgt id='2037'>0.81041E+02</wgt>
<wgt id='2038'>0.80959E+02</wgt>
<wgt id='2039'>0.81037E+02</wgt>
<wgt id='2040'>0.81026E+02</wgt>
<wgt id='2041'>0.81042E+02</wgt>
<wgt id='2042'>0.81228E+02</wgt>
<wgt id='2043'>0.81067E+02</wgt>
<wgt id='2044'>0.81155E+02</wgt>
<wgt id='2045'>0.81091E+02</wgt>
<wgt id='2046'>0.81057E+02</wgt>
<wgt id='2047'>0.81096E+02</wgt>
<wgt id='2048'>0.81084E+02</wgt>
<wgt id='2049'>0.81039E+02</wgt>
<wgt id='2050'>0.81049E+02</wgt>
<wgt id='2051'>0.81070E+02</wgt>
<wgt id='2052'>0.81219E+02</wgt>
<wgt id='2053'>0.81093E+02</wgt>
<wgt id='2054'>0.81092E+02</wgt>
<wgt id='2055'>0.81095E+02</wgt>
<wgt id='2056'>0.81037E+02</wgt>
<wgt id='2057'>0.81145E+02</wgt>
<wgt id='2058'>0.81150E+02</wgt>
<wgt id='2059'>0.81102E+02</wgt>
<wgt id='2060'>0.81099E+02</wgt>
<wgt id='2061'>0.81065E+02</wgt>
<wgt id='2062'>0.81196E+02</wgt>
<wgt id='2063'>0.81120E+02</wgt>
<wgt id='2064'>0.81122E+02</wgt>
<wgt id='2065'>0.81176E+02</wgt>
<wgt id='2066'>0.81075E+02</wgt>
<wgt id='2067'>0.81094E+02</wgt>
<wgt id='2068'>0.81142E+02</wgt>
<wgt id='2069'>0.81107E+02</wgt>
<wgt id='2070'>0.81115E+02</wgt>
<wgt id='2071'>0.81096E+02</wgt>
<wgt id='2072'>0.81085E+02</wgt>
<wgt id='2073'>0.81122E+02</wgt>
<wgt id='2074'>0.81084E+02</wgt>
<wgt id='2075'>0.81089E+02</wgt>
<wgt id='2076'>0.81082E+02</wgt>
<wgt id='2077'>0.81157E+02</wgt>
<wgt id='2078'>0.81118E+02</wgt>
<wgt id='2079'>0.81084E+02</wgt>
<wgt id='2080'>0.81117E+02</wgt>
<wgt id='2081'>0.81095E+02</wgt>
<wgt id='2082'>0.81112E+02</wgt>
<wgt id='2083'>0.81138E+02</wgt>
<wgt id='2084'>0.81102E+02</wgt>
<wgt id='2085'>0.81115E+02</wgt>
<wgt id='2086'>0.81081E+02</wgt>
<wgt id='2087'>0.81118E+02</wgt>
<wgt id='2088'>0.81104E+02</wgt>
<wgt id='2089'>0.81095E+02</wgt>
<wgt id='2090'>0.81123E+02</wgt>
<wgt id='2091'>0.81111E+02</wgt>
<wgt id='2092'>0.81139E+02</wgt>
<wgt id='2093'>0.81080E+02</wgt>
<wgt id='2094'>0.81102E+02</wgt>
<wgt id='2095'>0.81125E+02</wgt>
<wgt id='2096'>0.81087E+02</wgt>
<wgt id='2097'>0.81117E+02</wgt>
<wgt id='2098'>0.81103E+02</wgt>
<wgt id='2099'>0.81116E+02</wgt>
<wgt id='2100'>0.81104E+02</wgt>
<wgt id='2101'>0.79242E+02</wgt>
<wgt id='2102'>0.83445E+02</wgt>
<wgt id='2200'>0.81137E+02</wgt>
<wgt id='2201'>0.70463E+02</wgt>
<wgt id='2202'>0.72646E+02</wgt>
<wgt id='2203'>0.74722E+02</wgt>
<wgt id='2204'>0.76540E+02</wgt>
<wgt id='2205'>0.80048E+02</wgt>
<wgt id='2206'>0.82479E+02</wgt>
<wgt id='2207'>0.85708E+02</wgt>
<wgt id='2208'>0.88111E+02</wgt>
<wgt id='2300'>0.85502E+02</wgt>
<wgt id='2301'>0.85632E+02</wgt>
<wgt id='2302'>0.85417E+02</wgt>
<wgt id='2303'>0.85427E+02</wgt>
<wgt id='2304'>0.85740E+02</wgt>
<wgt id='2305'>0.85496E+02</wgt>
<wgt id='2306'>0.85464E+02</wgt>
<wgt id='2307'>0.85490E+02</wgt>
<wgt id='2308'>0.85451E+02</wgt>
<wgt id='2309'>0.85515E+02</wgt>
<wgt id='2310'>0.85309E+02</wgt>
<wgt id='2311'>0.85424E+02</wgt>
<wgt id='2312'>0.85582E+02</wgt>
<wgt id='2313'>0.85542E+02</wgt>
<wgt id='2314'>0.85437E+02</wgt>
<wgt id='2315'>0.85417E+02</wgt>
<wgt id='2316'>0.85569E+02</wgt>
<wgt id='2317'>0.85452E+02</wgt>
<wgt id='2318'>0.85488E+02</wgt>
<wgt id='2319'>0.85610E+02</wgt>
<wgt id='2320'>0.85709E+02</wgt>
<wgt id='2321'>0.85710E+02</wgt>
<wgt id='2322'>0.85475E+02</wgt>
<wgt id='2323'>0.85503E+02</wgt>
<wgt id='2324'>0.85584E+02</wgt>
<wgt id='2325'>0.85562E+02</wgt>
<wgt id='2326'>0.85278E+02</wgt>
<wgt id='2327'>0.85588E+02</wgt>
<wgt id='2328'>0.85569E+02</wgt>
<wgt id='2329'>0.85337E+02</wgt>
<wgt id='2330'>0.85991E+02</wgt>
<wgt id='2331'>0.85741E+02</wgt>
<wgt id='2332'>0.85259E+02</wgt>
<wgt id='2333'>0.85290E+02</wgt>
<wgt id='2334'>0.85445E+02</wgt>
<wgt id='2335'>0.85284E+02</wgt>
<wgt id='2336'>0.85626E+02</wgt>
<wgt id='2337'>0.85722E+02</wgt>
<wgt id='2338'>0.85551E+02</wgt>
<wgt id='2339'>0.85750E+02</wgt>
<wgt id='2340'>0.85704E+02</wgt>
<wgt id='2341'>0.85537E+02</wgt>
<wgt id='2342'>0.85167E+02</wgt>
<wgt id='2343'>0.85142E+02</wgt>
<wgt id='2344'>0.85701E+02</wgt>
<wgt id='2345'>0.85679E+02</wgt>
<wgt id='2346'>0.85688E+02</wgt>
<wgt id='2347'>0.85394E+02</wgt>
<wgt id='2348'>0.85735E+02</wgt>
<wgt id='2349'>0.85434E+02</wgt>
<wgt id='2350'>0.85412E+02</wgt>
<wgt id='2351'>0.85746E+02</wgt>
<wgt id='2352'>0.85440E+02</wgt>
<wgt id='2353'>0.85435E+02</wgt>
<wgt id='2354'>0.85481E+02</wgt>
<wgt id='2355'>0.85488E+02</wgt>
<wgt id='2356'>0.85507E+02</wgt>
<wgt id='2357'>0.85436E+02</wgt>
<wgt id='2358'>0.85473E+02</wgt>
<wgt id='2359'>0.85458E+02</wgt>
<wgt id='2360'>0.85531E+02</wgt>
<wgt id='2361'>0.85469E+02</wgt>
<wgt id='2362'>0.85515E+02</wgt>
<wgt id='2363'>0.85533E+02</wgt>
<wgt id='2364'>0.85499E+02</wgt>
<wgt id='2365'>0.85492E+02</wgt>
<wgt id='2366'>0.85523E+02</wgt>
<wgt id='2367'>0.85465E+02</wgt>
<wgt id='2368'>0.85506E+02</wgt>
<wgt id='2369'>0.85457E+02</wgt>
<wgt id='2370'>0.85475E+02</wgt>
<wgt id='2371'>0.85506E+02</wgt>
<wgt id='2372'>0.85524E+02</wgt>
<wgt id='2373'>0.85466E+02</wgt>
<wgt id='2374'>0.85617E+02</wgt>
<wgt id='2375'>0.85516E+02</wgt>
<wgt id='2376'>0.85530E+02</wgt>
<wgt id='2377'>0.85509E+02</wgt>
<wgt id='2378'>0.85545E+02</wgt>
<wgt id='2379'>0.85469E+02</wgt>
<wgt id='2380'>0.85451E+02</wgt>
<wgt id='2381'>0.85491E+02</wgt>
<wgt id='2382'>0.85456E+02</wgt>
<wgt id='2383'>0.85549E+02</wgt>
<wgt id='2384'>0.85508E+02</wgt>
<wgt id='2385'>0.85507E+02</wgt>
<wgt id='2386'>0.85486E+02</wgt>
<wgt id='2387'>0.85478E+02</wgt>
<wgt id='2388'>0.85497E+02</wgt>
<wgt id='2389'>0.85509E+02</wgt>
<wgt id='2390'>0.85477E+02</wgt>
<wgt id='2391'>0.85484E+02</wgt>
<wgt id='2392'>0.85528E+02</wgt>
<wgt id='2393'>0.85528E+02</wgt>
<wgt id='2394'>0.85515E+02</wgt>
<wgt id='2395'>0.85511E+02</wgt>
<wgt id='2396'>0.85492E+02</wgt>
<wgt id='2397'>0.85483E+02</wgt>
<wgt id='2398'>0.85516E+02</wgt>
<wgt id='2399'>0.85526E+02</wgt>
<wgt id='2400'>0.85511E+02</wgt>
<wgt id='2401'>0.83286E+02</wgt>
<wgt id='2402'>0.87950E+02</wgt>
<wgt id='2500'>0.82113E+02</wgt>
<wgt id='2501'>0.87065E+02</wgt>
<wgt id='2600'>0.78803E+02</wgt>
<wgt id='2601'>0.78632E+02</wgt>
<wgt id='2602'>0.78845E+02</wgt>
<wgt id='2603'>0.78793E+02</wgt>
<wgt id='2604'>0.78835E+02</wgt>
<wgt id='2605'>0.78716E+02</wgt>
<wgt id='2606'>0.78832E+02</wgt>
<wgt id='2607'>0.78833E+02</wgt>
<wgt id='2608'>0.78900E+02</wgt>
<wgt id='2609'>0.78724E+02</wgt>
<wgt id='2610'>0.78745E+02</wgt>
<wgt id='2611'>0.78773E+02</wgt>
<wgt id='2612'>0.78861E+02</wgt>
<wgt id='2613'>0.78803E+02</wgt>
<wgt id='2614'>0.78740E+02</wgt>
<wgt id='2615'>0.78616E+02</wgt>
<wgt id='2616'>0.78831E+02</wgt>
<wgt id='2617'>0.78599E+02</wgt>
<wgt id='2618'>0.78726E+02</wgt>
<wgt id='2619'>0.78878E+02</wgt>
<wgt id='2620'>0.78703E+02</wgt>
<wgt id='2621'>0.78896E+02</wgt>
<wgt id='2622'>0.79162E+02</wgt>
<wgt id='2623'>0.78783E+02</wgt>
<wgt id='2624'>0.78777E+02</wgt>
<wgt id='2625'>0.78826E+02</wgt>
<wgt id='2626'>0.78802E+02</wgt>
<wgt id='2627'>0.78867E+02</wgt>
<wgt id='2628'>0.78796E+02</wgt>
<wgt id='2629'>0.78852E+02</wgt>
<wgt id='2630'>0.78936E+02</wgt>
<wgt id='2631'>0.78639E+02</wgt>
<wgt id='2632'>0.78759E+02</wgt>
<wgt id='2633'>0.78722E+02</wgt>
<wgt id='2634'>0.78644E+02</wgt>
<wgt id='2635'>0.78738E+02</wgt>
<wgt id='2636'>0.78819E+02</wgt>
<wgt id='2637'>0.78827E+02</wgt>
<wgt id='2638'>0.78795E+02</wgt>
<wgt id='2639'>0.78818E+02</wgt>
<wgt id='2640'>0.78772E+02</wgt>
<wgt id='2641'>0.78810E+02</wgt>
<wgt id='2642'>0.78819E+02</wgt>
<wgt id='2643'>0.78753E+02</wgt>
<wgt id='2644'>0.78800E+02</wgt>
<wgt id='2645'>0.78800E+02</wgt>
<wgt id='2646'>0.78872E+02</wgt>
<wgt id='2647'>0.78775E+02</wgt>
<wgt id='2648'>0.78778E+02</wgt>
<wgt id='2649'>0.78793E+02</wgt>
<wgt id='2650'>0.78814E+02</wgt>
<wgt id='2651'>0.77415E+02</wgt>
<wgt id='2652'>0.79946E+02</wgt>
<wgt id='2700'>0.76220E+02</wgt>
<wgt id='2701'>0.77415E+02</wgt>
<wgt id='2702'>0.78183E+02</wgt>
<wgt id='2703'>0.79395E+02</wgt>
<wgt id='2704'>0.79946E+02</wgt>
<wgt id='2705'>0.81286E+02</wgt>
<wgt id='2800'>0.80269E+02</wgt>
<wgt id='4000'>0.82047E+02</wgt>
<wgt id='4001'>0.82302E+02</wgt>
<wgt id='4002'>0.82004E+02</wgt>
<wgt id='4003'>0.81735E+02</wgt>
<wgt id='4004'>0.82467E+02</wgt>
<wgt id='4005'>0.82099E+02</wgt>
<wgt id='4006'>0.82147E+02</wgt>
<wgt id='4007'>0.82674E+02</wgt>
<wgt id='4008'>0.81473E+02</wgt>
<wgt id='4009'>0.81864E+02</wgt>
<wgt id='4010'>0.82008E+02</wgt>
<wgt id='4011'>0.82534E+02</wgt>
<wgt id='4012'>0.81543E+02</wgt>
<wgt id='4013'>0.82333E+02</wgt>
<wgt id='4014'>0.81854E+02</wgt>
<wgt id='4015'>0.81729E+02</wgt>
<wgt id='4016'>0.82953E+02</wgt>
<wgt id='4017'>0.82042E+02</wgt>
<wgt id='4018'>0.82079E+02</wgt>
<wgt id='4019'>0.82270E+02</wgt>
<wgt id='4020'>0.81763E+02</wgt>
<wgt id='4021'>0.82240E+02</wgt>
<wgt id='4022'>0.81703E+02</wgt>
<wgt id='4023'>0.82418E+02</wgt>
<wgt id='4024'>0.82155E+02</wgt>
<wgt id='4025'>0.82096E+02</wgt>
<wgt id='4026'>0.82078E+02</wgt>
<wgt id='4027'>0.82481E+02</wgt>
<wgt id='4028'>0.81688E+02</wgt>
<wgt id='4029'>0.82625E+02</wgt>
<wgt id='4030'>0.81029E+02</wgt>
<wgt id='4031'>0.81721E+02</wgt>
<wgt id='4032'>0.83292E+02</wgt>
<wgt id='4033'>0.82659E+02</wgt>
<wgt id='4034'>0.81230E+02</wgt>
<wgt id='4035'>0.82926E+02</wgt>
<wgt id='4036'>0.81336E+02</wgt>
<wgt id='4037'>0.84189E+02</wgt>
<wgt id='4038'>0.80504E+02</wgt>
<wgt id='4039'>0.83705E+02</wgt>
<wgt id='4040'>0.80438E+02</wgt>
<wgt id='4041'>0.82358E+02</wgt>
<wgt id='4042'>0.81620E+02</wgt>
<wgt id='4043'>0.81710E+02</wgt>
<wgt id='4044'>0.81355E+02</wgt>
<wgt id='4045'>0.82556E+02</wgt>
<wgt id='4046'>0.81790E+02</wgt>
<wgt id='4047'>0.82049E+02</wgt>
<wgt id='4048'>0.82166E+02</wgt>
<wgt id='4049'>0.82116E+02</wgt>
<wgt id='4050'>0.81945E+02</wgt>
<wgt id='4051'>0.82517E+02</wgt>
<wgt id='4052'>0.81788E+02</wgt>
<wgt id='4053'>0.81950E+02</wgt>
<wgt id='4054'>0.81479E+02</wgt>
<wgt id='4055'>0.82424E+02</wgt>
<wgt id='4056'>0.81616E+02</wgt>
<wgt id='4057'>0.81303E+02</wgt>
<wgt id='4058'>0.82539E+02</wgt>
<wgt id='4100'>0.82351E+02</wgt>
<wgt id='4101'>0.82179E+02</wgt>
<wgt id='4102'>0.81939E+02</wgt>
<wgt id='4103'>0.81840E+02</wgt>
<wgt id='4200'>0.79921E+02</wgt>
<wgt id='4201'>0.79859E+02</wgt>
<wgt id='4202'>0.80136E+02</wgt>
<wgt id='4203'>0.79397E+02</wgt>
<wgt id='4204'>0.80264E+02</wgt>
<wgt id='4205'>0.79843E+02</wgt>
<wgt id='4206'>0.80164E+02</wgt>
<wgt id='4207'>0.80263E+02</wgt>
<wgt id='4208'>0.79656E+02</wgt>
<wgt id='4209'>0.79874E+02</wgt>
<wgt id='4210'>0.80024E+02</wgt>
<wgt id='4211'>0.80667E+02</wgt>
<wgt id='4212'>0.79340E+02</wgt>
<wgt id='4213'>0.80117E+02</wgt>
<wgt id='4214'>0.79582E+02</wgt>
<wgt id='4215'>0.79855E+02</wgt>
<wgt id='4216'>0.80079E+02</wgt>
<wgt id='4217'>0.79778E+02</wgt>
<wgt id='4218'>0.79998E+02</wgt>
<wgt id='4219'>0.79209E+02</wgt>
<wgt id='4220'>0.80591E+02</wgt>
<wgt id='4221'>0.79440E+02</wgt>
<wgt id='4222'>0.80660E+02</wgt>
<wgt id='4223'>0.79436E+02</wgt>
<wgt id='4224'>0.79558E+02</wgt>
<wgt id='4225'>0.78982E+02</wgt>
<wgt id='4226'>0.81035E+02</wgt>
<wgt id='4227'>0.80652E+02</wgt>
<wgt id='4228'>0.79291E+02</wgt>
<wgt id='4229'>0.78567E+02</wgt>
<wgt id='4230'>0.80935E+02</wgt>
<wgt id='4231'>0.80102E+02</wgt>
<wgt id='4232'>0.79565E+02</wgt>
<wgt id='4233'>0.80042E+02</wgt>
<wgt id='4234'>0.79344E+02</wgt>
<wgt id='4235'>0.80576E+02</wgt>
<wgt id='4236'>0.79265E+02</wgt>
<wgt id='4237'>0.80794E+02</wgt>
<wgt id='4238'>0.78532E+02</wgt>
<wgt id='4239'>0.79541E+02</wgt>
<wgt id='4240'>0.79536E+02</wgt>
<wgt id='4241'>0.79921E+02</wgt>
<wgt id='4242'>0.79870E+02</wgt>
<wgt id='4243'>0.79995E+02</wgt>
<wgt id='4244'>0.80068E+02</wgt>
<wgt id='4245'>0.79645E+02</wgt>
<wgt id='4246'>0.79926E+02</wgt>
<wgt id='4247'>0.79498E+02</wgt>
<wgt id='4248'>0.80082E+02</wgt>
<wgt id='4249'>0.81078E+02</wgt>
<wgt id='4250'>0.78550E+02</wgt>
<wgt id='4251'>0.80267E+02</wgt>
<wgt id='4252'>0.79634E+02</wgt>
<wgt id='4253'>0.79949E+02</wgt>
<wgt id='4254'>0.79604E+02</wgt>
<wgt id='4255'>0.80966E+02</wgt>
<wgt id='4256'>0.79304E+02</wgt>
<wgt id='4257'>0.78499E+02</wgt>
<wgt id='4258'>0.80331E+02</wgt>
<wgt id='4300'>0.81276E+02</wgt>
<wgt id='4301'>0.81393E+02</wgt>
<wgt id='5000'>0.82155E+02</wgt>
<wgt id='5001'>0.82190E+02</wgt>
<wgt id='5002'>0.82109E+02</wgt>
<wgt id='5003'>0.82172E+02</wgt>
<wgt id='5004'>0.82139E+02</wgt>
<wgt id='5005'>0.82157E+02</wgt>
<wgt id='5006'>0.82151E+02</wgt>
<wgt id='5007'>0.82226E+02</wgt>
<wgt id='5008'>0.82097E+02</wgt>
<wgt id='5009'>0.82247E+02</wgt>
<wgt id='5010'>0.82059E+02</wgt>
<wgt id='5011'>0.82363E+02</wgt>
<wgt id='5012'>0.81954E+02</wgt>
<wgt id='5013'>0.82278E+02</wgt>
<wgt id='5014'>0.82067E+02</wgt>
<wgt id='5015'>0.81765E+02</wgt>
<wgt id='5016'>0.81765E+02</wgt>
<wgt id='5017'>0.82533E+02</wgt>
<wgt id='5018'>0.81899E+02</wgt>
<wgt id='5019'>0.82434E+02</wgt>
<wgt id='5020'>0.81772E+02</wgt>
<wgt id='5021'>0.82246E+02</wgt>
<wgt id='5022'>0.82011E+02</wgt>
<wgt id='5023'>0.82090E+02</wgt>
<wgt id='5024'>0.82309E+02</wgt>
<wgt id='5025'>0.81940E+02</wgt>
<wgt id='5026'>0.82394E+02</wgt>
<wgt id='5027'>0.82207E+02</wgt>
<wgt id='5028'>0.82015E+02</wgt>
<wgt id='5029'>0.83097E+02</wgt>
<wgt id='5030'>0.81624E+02</wgt>
<wgt id='5031'>0.81634E+02</wgt>
<wgt id='5032'>0.83748E+02</wgt>
<wgt id='5033'>0.82106E+02</wgt>
<wgt id='5034'>0.82207E+02</wgt>
<wgt id='5035'>0.82166E+02</wgt>
<wgt id='5036'>0.82141E+02</wgt>
<wgt id='5037'>0.81923E+02</wgt>
<wgt id='5038'>0.82285E+02</wgt>
<wgt id='5039'>0.82342E+02</wgt>
<wgt id='5040'>0.81692E+02</wgt>
<wgt id='5041'>0.82017E+02</wgt>
<wgt id='5042'>0.82294E+02</wgt>
<wgt id='5043'>0.82341E+02</wgt>
<wgt id='5044'>0.82028E+02</wgt>
<wgt id='5045'>0.82196E+02</wgt>
<wgt id='5046'>0.82140E+02</wgt>
<wgt id='5047'>0.82232E+02</wgt>
<wgt id='5048'>0.81820E+02</wgt>
<wgt id='5049'>0.82091E+02</wgt>
<wgt id='5050'>0.82325E+02</wgt>
<wgt id='5051'>0.82360E+02</wgt>
<wgt id='5052'>0.82009E+02</wgt>
<wgt id='5053'>0.82245E+02</wgt>
<wgt id='5054'>0.82344E+02</wgt>
<wgt id='5055'>0.82200E+02</wgt>
<wgt id='5056'>0.82218E+02</wgt>
<wgt id='5057'>0.81836E+02</wgt>
<wgt id='5058'>0.82378E+02</wgt>
<wgt id='5059'>0.82056E+02</wgt>
<wgt id='5060'>0.82218E+02</wgt>
<wgt id='5061'>0.82418E+02</wgt>
<wgt id='5062'>0.82315E+02</wgt>
<wgt id='5063'>0.82449E+02</wgt>
<wgt id='5064'>0.82182E+02</wgt>
<wgt id='5100'>0.82155E+02</wgt>
<wgt id='5101'>0.82147E+02</wgt>
<wgt id='6000'>0.81388E+02</wgt>
<wgt id='6001'>0.81075E+02</wgt>
<wgt id='6002'>0.80989E+02</wgt>
<wgt id='6003'>0.81158E+02</wgt>
<wgt id='6004'>0.81588E+02</wgt>
<wgt id='6005'>0.80928E+02</wgt>
<wgt id='6006'>0.81422E+02</wgt>
<wgt id='6007'>0.80961E+02</wgt>
<wgt id='6008'>0.81642E+02</wgt>
<wgt id='6009'>0.81253E+02</wgt>
<wgt id='6010'>0.80911E+02</wgt>
<wgt id='6011'>0.81353E+02</wgt>
<wgt id='6012'>0.81567E+02</wgt>
<wgt id='6013'>0.80972E+02</wgt>
<wgt id='6014'>0.81100E+02</wgt>
<wgt id='6015'>0.80716E+02</wgt>
<wgt id='6016'>0.81710E+02</wgt>
<wgt id='6017'>0.81052E+02</wgt>
<wgt id='6018'>0.80914E+02</wgt>
<wgt id='6019'>0.81394E+02</wgt>
<wgt id='6020'>0.81581E+02</wgt>
<wgt id='6021'>0.81255E+02</wgt>
<wgt id='6022'>0.81453E+02</wgt>
<wgt id='6023'>0.81348E+02</wgt>
<wgt id='6024'>0.81459E+02</wgt>
<wgt id='6025'>0.81850E+02</wgt>
<wgt id='6026'>0.81259E+02</wgt>
<wgt id='6027'>0.81408E+02</wgt>
<wgt id='6028'>0.81061E+02</wgt>
<wgt id='6029'>0.81227E+02</wgt>
<wgt id='6030'>0.80965E+02</wgt>
<wgt id='6031'>0.81134E+02</wgt>
<wgt id='6032'>0.81350E+02</wgt>
<wgt id='6033'>0.81298E+02</wgt>
<wgt id='6034'>0.81727E+02</wgt>
<wgt id='6035'>0.81441E+02</wgt>
<wgt id='6036'>0.82164E+02</wgt>
<wgt id='6037'>0.81388E+02</wgt>
<wgt id='6038'>0.81348E+02</wgt>
<wgt id='6039'>0.81584E+02</wgt>
<wgt id='6040'>0.81378E+02</wgt>
<wgt id='6041'>0.80211E+02</wgt>
<wgt id='6042'>0.82584E+02</wgt>
<wgt id='7000'>0.80780E+02</wgt>
<wgt id='7001'>0.80502E+02</wgt>
<wgt id='7002'>0.80660E+02</wgt>
<wgt id='7003'>0.80555E+02</wgt>
<wgt id='7004'>0.80608E+02</wgt>
<wgt id='7005'>0.80665E+02</wgt>
<wgt id='7006'>0.80498E+02</wgt>
<wgt id='7007'>0.81044E+02</wgt>
<wgt id='7008'>0.80131E+02</wgt>
<wgt id='7009'>0.80208E+02</wgt>
<wgt id='7010'>0.80967E+02</wgt>
<wgt id='7011'>0.80875E+02</wgt>
<wgt id='7012'>0.80294E+02</wgt>
<wgt id='7013'>0.80498E+02</wgt>
<wgt id='7014'>0.80659E+02</wgt>
<wgt id='7015'>0.80662E+02</wgt>
<wgt id='7016'>0.80312E+02</wgt>
<wgt id='7017'>0.80520E+02</wgt>
<wgt id='7018'>0.80649E+02</wgt>
<wgt id='7019'>0.80710E+02</wgt>
<wgt id='7020'>0.80467E+02</wgt>
<wgt id='7021'>0.81332E+02</wgt>
<wgt id='7022'>0.79840E+02</wgt>
<wgt id='7023'>0.79805E+02</wgt>
<wgt id='7024'>0.81366E+02</wgt>
<wgt id='7025'>0.79255E+02</wgt>
<wgt id='7026'>0.81843E+02</wgt>
<wgt id='7027'>0.80027E+02</wgt>
<wgt id='7028'>0.81200E+02</wgt>
<wgt id='8000'>0.80715E+02</wgt>
<wgt id='8001'>0.80706E+02</wgt>
<wgt id='8002'>0.80737E+02</wgt>
<wgt id='8003'>0.80716E+02</wgt>
<wgt id='8004'>0.80713E+02</wgt>
<wgt id='8005'>0.80581E+02</wgt>
<wgt id='8006'>0.80812E+02</wgt>
<wgt id='8007'>0.80896E+02</wgt>
<wgt id='8008'>0.80890E+02</wgt>
<wgt id='8009'>0.81047E+02</wgt>
<wgt id='8010'>0.80615E+02</wgt>
<wgt id='8011'>0.80744E+02</wgt>
<wgt id='8012'>0.80409E+02</wgt>
<wgt id='8013'>0.80542E+02</wgt>
<wgt id='8014'>0.80931E+02</wgt>
<wgt id='8015'>0.80670E+02</wgt>
<wgt id='8016'>0.80820E+02</wgt>
<wgt id='8017'>0.80798E+02</wgt>
<wgt id='8018'>0.80987E+02</wgt>
<wgt id='8019'>0.80645E+02</wgt>
<wgt id='8020'>0.80873E+02</wgt>
<wgt id='8021'>0.80590E+02</wgt>
<wgt id='8022'>0.80999E+02</wgt>
<wgt id='8023'>0.80507E+02</wgt>
<wgt id='8024'>0.80260E+02</wgt>
<wgt id='8025'>0.80437E+02</wgt>
<wgt id='8026'>0.80755E+02</wgt>
<wgt id='8027'>0.80836E+02</wgt>
<wgt id='8028'>0.80756E+02</wgt>
<wgt id='8029'>0.81468E+02</wgt>
<wgt id='3000'>0.81104E+02</wgt>
<wgt id='3001'>0.80984E+02</wgt>
<wgt id='3002'>0.80642E+02</wgt>
<wgt id='3003'>0.82248E+02</wgt>
<wgt id='3004'>0.82204E+02</wgt>
<wgt id='3005'>0.82407E+02</wgt>
<wgt id='3006'>0.81713E+02</wgt>
<wgt id='3007'>0.79398E+02</wgt>
<wgt id='3008'>0.79774E+02</wgt>
<wgt id='3009'>0.80719E+02</wgt>
<wgt id='3010'>0.83811E+02</wgt>
<wgt id='3011'>0.81375E+02</wgt>
<wgt id='3012'>0.80443E+02</wgt>
<wgt id='3013'>0.79073E+02</wgt>
<wgt id='3014'>0.80895E+02</wgt>
<wgt id='3015'>0.78793E+02</wgt>
<wgt id='3016'>0.81654E+02</wgt>
<wgt id='3017'>0.82141E+02</wgt>
<wgt id='3018'>0.80422E+02</wgt>
<wgt id='3019'>0.79974E+02</wgt>
<wgt id='3020'>0.80397E+02</wgt>
<wgt id='3021'>0.78304E+02</wgt>
<wgt id='3022'>0.79253E+02</wgt>
<wgt id='3023'>0.79855E+02</wgt>
<wgt id='3024'>0.81335E+02</wgt>
<wgt id='3025'>0.80121E+02</wgt>
<wgt id='3026'>0.79926E+02</wgt>
<wgt id='3027'>0.81527E+02</wgt>
<wgt id='3028'>0.80002E+02</wgt>
<wgt id='3029'>0.81547E+02</wgt>
<wgt id='3030'>0.80897E+02</wgt>
<wgt id='3031'>0.80711E+02</wgt>
<wgt id='3032'>0.79110E+02</wgt>
<wgt id='3033'>0.80150E+02</wgt>
<wgt id='3034'>0.82946E+02</wgt>
<wgt id='3035'>0.80990E+02</wgt>
<wgt id='3036'>0.79865E+02</wgt>
<wgt id='3037'>0.79542E+02</wgt>
<wgt id='3038'>0.81907E+02</wgt>
<wgt id='3039'>0.78697E+02</wgt>
<wgt id='3040'>0.81529E+02</wgt>
<wgt id='3041'>0.81949E+02</wgt>
<wgt id='3042'>0.82271E+02</wgt>
<wgt id='3043'>0.82452E+02</wgt>
<wgt id='3044'>0.82597E+02</wgt>
<wgt id='3045'>0.81891E+02</wgt>
<wgt id='3046'>0.81310E+02</wgt>
<wgt id='3047'>0.81435E+02</wgt>
<wgt id='3048'>0.82184E+02</wgt>
<wgt id='3049'>0.79585E+02</wgt>
<wgt id='3050'>0.81631E+02</wgt>
<wgt id='3051'>0.79966E+02</wgt>
<wgt id='3052'>0.79828E+02</wgt>
<wgt id='3053'>0.82087E+02</wgt>
<wgt id='3054'>0.79197E+02</wgt>
<wgt id='3055'>0.81668E+02</wgt>
<wgt id='3056'>0.81220E+02</wgt>
<wgt id='3057'>0.79549E+02</wgt>
<wgt id='3058'>0.82179E+02</wgt>
<wgt id='3059'>0.80944E+02</wgt>
<wgt id='3060'>0.80069E+02</wgt>
<wgt id='3061'>0.80164E+02</wgt>
<wgt id='3062'>0.81456E+02</wgt>
<wgt id='3063'>0.80961E+02</wgt>
<wgt id='3064'>0.82690E+02</wgt>
<wgt id='3065'>0.79474E+02</wgt>
<wgt id='3066'>0.83290E+02</wgt>
<wgt id='3067'>0.80740E+02</wgt>
<wgt id='3068'>0.80374E+02</wgt>
<wgt id='3069'>0.80848E+02</wgt>
<wgt id='3070'>0.81732E+02</wgt>
<wgt id='3071'>0.80761E+02</wgt>
<wgt id='3072'>0.80710E+02</wgt>
<wgt id='3073'>0.81368E+02</wgt>
<wgt id='3074'>0.80363E+02</wgt>
<wgt id='3075'>0.81828E+02</wgt>
<wgt id='3076'>0.82957E+02</wgt>
<wgt id='3077'>0.82115E+02</wgt>
<wgt id='3078'>0.79114E+02</wgt>
<wgt id='3079'>0.80858E+02</wgt>
<wgt id='3080'>0.83548E+02</wgt>
<wgt id='3081'>0.82027E+02</wgt>
<wgt id='3082'>0.81654E+02</wgt>
<wgt id='3083'>0.81731E+02</wgt>
<wgt id='3084'>0.80627E+02</wgt>
<wgt id='3085'>0.80855E+02</wgt>
<wgt id='3086'>0.82661E+02</wgt>
<wgt id='3087'>0.80539E+02</wgt>
<wgt id='3088'>0.82271E+02</wgt>
<wgt id='3089'>0.84643E+02</wgt>
<wgt id='3090'>0.82082E+02</wgt>
<wgt id='3091'>0.81723E+02</wgt>
<wgt id='3092'>0.81430E+02</wgt>
<wgt id='3093'>0.81416E+02</wgt>
<wgt id='3094'>0.82067E+02</wgt>
<wgt id='3095'>0.79839E+02</wgt>
<wgt id='3096'>0.81109E+02</wgt>
<wgt id='3097'>0.84161E+02</wgt>
<wgt id='3098'>0.81781E+02</wgt>
<wgt id='3099'>0.80073E+02</wgt>
<wgt id='3100'>0.80662E+02</wgt>
<wgt id='3200'>0.78879E+02</wgt>
<wgt id='3201'>0.78830E+02</wgt>
<wgt id='3202'>0.76936E+02</wgt>
<wgt id='3203'>0.79233E+02</wgt>
<wgt id='3204'>0.78057E+02</wgt>
<wgt id='3205'>0.79160E+02</wgt>
<wgt id='3206'>0.80236E+02</wgt>
<wgt id='3207'>0.80028E+02</wgt>
<wgt id='3208'>0.79137E+02</wgt>
<wgt id='3209'>0.78750E+02</wgt>
<wgt id='3210'>0.79089E+02</wgt>
<wgt id='3211'>0.79287E+02</wgt>
<wgt id='3212'>0.78963E+02</wgt>
<wgt id='3213'>0.79386E+02</wgt>
<wgt id='3214'>0.78716E+02</wgt>
<wgt id='3215'>0.79086E+02</wgt>
<wgt id='3216'>0.79581E+02</wgt>
<wgt id='3217'>0.79380E+02</wgt>
<wgt id='3218'>0.79930E+02</wgt>
<wgt id='3219'>0.78763E+02</wgt>
<wgt id='3220'>0.78101E+02</wgt>
<wgt id='3221'>0.78881E+02</wgt>
<wgt id='3222'>0.79917E+02</wgt>
<wgt id='3223'>0.79759E+02</wgt>
<wgt id='3224'>0.78722E+02</wgt>
<wgt id='3225'>0.79871E+02</wgt>
<wgt id='3226'>0.78127E+02</wgt>
<wgt id='3227'>0.77948E+02</wgt>
<wgt id='3228'>0.78122E+02</wgt>
<wgt id='3229'>0.79712E+02</wgt>
<wgt id='3230'>0.79016E+02</wgt>
<wgt id='3231'>0.79108E+02</wgt>
<wgt id='3232'>0.79143E+02</wgt>
<wgt id='3233'>0.79325E+02</wgt>
<wgt id='3234'>0.77852E+02</wgt>
<wgt id='3235'>0.78958E+02</wgt>
<wgt id='3236'>0.78798E+02</wgt>
<wgt id='3237'>0.79125E+02</wgt>
<wgt id='3238'>0.77786E+02</wgt>
<wgt id='3239'>0.78500E+02</wgt>
<wgt id='3240'>0.77739E+02</wgt>
<wgt id='3241'>0.79818E+02</wgt>
<wgt id='3242'>0.78801E+02</wgt>
<wgt id='3243'>0.78796E+02</wgt>
<wgt id='3244'>0.78966E+02</wgt>
<wgt id='3245'>0.79187E+02</wgt>
<wgt id='3246'>0.77255E+02</wgt>
<wgt id='3247'>0.78534E+02</wgt>
<wgt id='3248'>0.78627E+02</wgt>
<wgt id='3249'>0.77602E+02</wgt>
<wgt id='3250'>0.79043E+02</wgt>
<wgt id='3251'>0.78474E+02</wgt>
<wgt id='3252'>0.79590E+02</wgt>
<wgt id='3253'>0.78552E+02</wgt>
<wgt id='3254'>0.78518E+02</wgt>
<wgt id='3255'>0.78096E+02</wgt>
<wgt id='3256'>0.79313E+02</wgt>
<wgt id='3257'>0.78922E+02</wgt>
<wgt id='3258'>0.78328E+02</wgt>
<wgt id='3259'>0.78059E+02</wgt>
<wgt id='3260'>0.78782E+02</wgt>
<wgt id='3261'>0.78449E+02</wgt>
<wgt id='3262'>0.79701E+02</wgt>
<wgt id='3263'>0.79921E+02</wgt>
<wgt id='3264'>0.78706E+02</wgt>
<wgt id='3265'>0.79179E+02</wgt>
<wgt id='3266'>0.79125E+02</wgt>
<wgt id='3267'>0.78823E+02</wgt>
<wgt id='3268'>0.78357E+02</wgt>
<wgt id='3269'>0.78878E+02</wgt>
<wgt id='3270'>0.80094E+02</wgt>
<wgt id='3271'>0.79087E+02</wgt>
<wgt id='3272'>0.79059E+02</wgt>
<wgt id='3273'>0.78801E+02</wgt>
<wgt id='3274'>0.78077E+02</wgt>
<wgt id='3275'>0.79573E+02</wgt>
<wgt id='3276'>0.78122E+02</wgt>
<wgt id='3277'>0.78682E+02</wgt>
<wgt id='3278'>0.79441E+02</wgt>
<wgt id='3279'>0.79158E+02</wgt>
<wgt id='3280'>0.78826E+02</wgt>
<wgt id='3281'>0.79472E+02</wgt>
<wgt id='3282'>0.79181E+02</wgt>
<wgt id='3283'>0.79051E+02</wgt>
<wgt id='3284'>0.78650E+02</wgt>
<wgt id='3285'>0.78807E+02</wgt>
<wgt id='3286'>0.77783E+02</wgt>
<wgt id='3287'>0.80131E+02</wgt>
<wgt id='3288'>0.78423E+02</wgt>
<wgt id='3289'>0.79843E+02</wgt>
<wgt id='3290'>0.78218E+02</wgt>
<wgt id='3291'>0.77762E+02</wgt>
<wgt id='3292'>0.78692E+02</wgt>
<wgt id='3293'>0.78877E+02</wgt>
<wgt id='3294'>0.78581E+02</wgt>
<wgt id='3295'>0.78696E+02</wgt>
<wgt id='3296'>0.79567E+02</wgt>
<wgt id='3297'>0.78807E+02</wgt>
<wgt id='3298'>0.78005E+02</wgt>
<wgt id='3299'>0.79187E+02</wgt>
<wgt id='3300'>0.79760E+02</wgt>
<wgt id='3301'>0.77415E+02</wgt>
<wgt id='3302'>0.79946E+02</wgt>
<wgt id='3400'>0.78383E+02</wgt>
<wgt id='3401'>0.78501E+02</wgt>
<wgt id='3402'>0.77048E+02</wgt>
<wgt id='3403'>0.78942E+02</wgt>
<wgt id='3404'>0.79541E+02</wgt>
<wgt id='3405'>0.78721E+02</wgt>
<wgt id='3406'>0.79567E+02</wgt>
<wgt id='3407'>0.78416E+02</wgt>
<wgt id='3408'>0.79109E+02</wgt>
<wgt id='3409'>0.79282E+02</wgt>
<wgt id='3410'>0.79202E+02</wgt>
<wgt id='3411'>0.79719E+02</wgt>
<wgt id='3412'>0.79114E+02</wgt>
<wgt id='3413'>0.78176E+02</wgt>
<wgt id='3414'>0.77739E+02</wgt>
<wgt id='3415'>0.78208E+02</wgt>
<wgt id='3416'>0.77976E+02</wgt>
<wgt id='3417'>0.78680E+02</wgt>
<wgt id='3418'>0.77703E+02</wgt>
<wgt id='3419'>0.77671E+02</wgt>
<wgt id='3420'>0.78089E+02</wgt>
<wgt id='3421'>0.78001E+02</wgt>
<wgt id='3422'>0.78056E+02</wgt>
<wgt id='3423'>0.79114E+02</wgt>
<wgt id='3424'>0.78881E+02</wgt>
<wgt id='3425'>0.78045E+02</wgt>
<wgt id='3426'>0.77831E+02</wgt>
<wgt id='3427'>0.77403E+02</wgt>
<wgt id='3428'>0.78664E+02</wgt>
<wgt id='3429'>0.77712E+02</wgt>
<wgt id='3430'>0.77941E+02</wgt>
<wgt id='3431'>0.78530E+02</wgt>
<wgt id='3432'>0.79224E+02</wgt>
<wgt id='3433'>0.77902E+02</wgt>
<wgt id='3434'>0.79272E+02</wgt>
<wgt id='3435'>0.79326E+02</wgt>
<wgt id='3436'>0.78143E+02</wgt>
<wgt id='3437'>0.79135E+02</wgt>
<wgt id='3438'>0.77769E+02</wgt>
<wgt id='3439'>0.77037E+02</wgt>
<wgt id='3440'>0.78804E+02</wgt>
<wgt id='3441'>0.78420E+02</wgt>
<wgt id='3442'>0.77494E+02</wgt>
<wgt id='3443'>0.78714E+02</wgt>
<wgt id='3444'>0.77574E+02</wgt>
<wgt id='3445'>0.77875E+02</wgt>
<wgt id='3446'>0.78724E+02</wgt>
<wgt id='3447'>0.78488E+02</wgt>
<wgt id='3448'>0.79790E+02</wgt>
<wgt id='3449'>0.79000E+02</wgt>
<wgt id='3450'>0.78136E+02</wgt>
<wgt id='3451'>0.79012E+02</wgt>
<wgt id='3452'>0.78219E+02</wgt>
<wgt id='3453'>0.77036E+02</wgt>
<wgt id='3454'>0.78393E+02</wgt>
<wgt id='3455'>0.79120E+02</wgt>
<wgt id='3456'>0.78418E+02</wgt>
<wgt id='3457'>0.79104E+02</wgt>
<wgt id='3458'>0.78214E+02</wgt>
<wgt id='3459'>0.78232E+02</wgt>
<wgt id='3460'>0.78222E+02</wgt>
<wgt id='3461'>0.77379E+02</wgt>
<wgt id='3462'>0.78833E+02</wgt>
<wgt id='3463'>0.77382E+02</wgt>
<wgt id='3464'>0.78501E+02</wgt>
<wgt id='3465'>0.79449E+02</wgt>
<wgt id='3466'>0.78903E+02</wgt>
<wgt id='3467'>0.77939E+02</wgt>
<wgt id='3468'>0.78079E+02</wgt>
<wgt id='3469'>0.77726E+02</wgt>
<wgt id='3470'>0.77638E+02</wgt>
<wgt id='3471'>0.78012E+02</wgt>
<wgt id='3472'>0.76987E+02</wgt>
<wgt id='3473'>0.79832E+02</wgt>
<wgt id='3474'>0.77743E+02</wgt>
<wgt id='3475'>0.79028E+02</wgt>
<wgt id='3476'>0.78103E+02</wgt>
<wgt id='3477'>0.77547E+02</wgt>
<wgt id='3478'>0.79736E+02</wgt>
<wgt id='3479'>0.78177E+02</wgt>
<wgt id='3480'>0.78790E+02</wgt>
<wgt id='3481'>0.78955E+02</wgt>
<wgt id='3482'>0.78843E+02</wgt>
<wgt id='3483'>0.78295E+02</wgt>
<wgt id='3484'>0.77769E+02</wgt>
<wgt id='3485'>0.77790E+02</wgt>
<wgt id='3486'>0.76486E+02</wgt>
<wgt id='3487'>0.77998E+02</wgt>
<wgt id='3488'>0.78166E+02</wgt>
<wgt id='3489'>0.77390E+02</wgt>
<wgt id='3490'>0.79313E+02</wgt>
<wgt id='3491'>0.79573E+02</wgt>
<wgt id='3492'>0.78046E+02</wgt>
<wgt id='3493'>0.79396E+02</wgt>
<wgt id='3494'>0.76418E+02</wgt>
<wgt id='3495'>0.78998E+02</wgt>
<wgt id='3496'>0.77697E+02</wgt>
<wgt id='3497'>0.78210E+02</wgt>
<wgt id='3498'>0.79423E+02</wgt>
<wgt id='3499'>0.77788E+02</wgt>
<wgt id='3500'>0.79542E+02</wgt>
</rwgt>
</event>
<event>
     13 322200  8.11039E+01  1.19570E+01 -1.00000E+00  1.83505E-01
      -1    -1     0     0     0   512  0.000000000E+00  0.000000000E+00  5.228383409E+01  5.228383409E+01  0.000000000E+00  0.00000E+00  9.000E+00
       1    -1     0     0   503     0  0.000000000E+00  0.000000000E+00 -2.353022709E+03  2.353022709E+03  0.000000000E+00  0.00000E+00  9.000E+00
       6     2     1     2   502     0 -4.985078385E+01 -2.574747865E+02 -6.607751148E+02  7.314745663E+02  1.722002395E+02  0.00000E+00  9.000E+00
      -6     2     1     2     0   512  5.799015239E+01  2.662338797E+02 -1.595818047E+03  1.628095613E+03  1.726752668E+02  0.00000E+00  9.000E+00
      21     1     1     2   503   502 -8.139368538E+00 -8.759093186E+00 -4.414571243E+01  4.573636365E+01  6.743495762E-07  0.00000E+00  9.000E+00
      24     2     3     3     0     0 -5.932099469E+01 -2.640003706E+02 -5.319698797E+02  6.020579509E+02  7.916215819E+01  0.00000E+00  9.000E+00
       5     1     3     3   502     0  9.470210830E+00  6.525584125E+00 -1.288052351E+02  1.294166154E+02  5.060000000E+00  0.00000E+00 -1.000E+00
     -24     2     4     4     0     0  3.928146881E+01  2.657094963E+02 -1.219321049E+03  1.251099747E+03  7.976330667E+01  0.00000E+00  9.000E+00
      -5     1     4     4     0   512  1.870868358E+01  5.243833814E-01 -3.764969979E+02  3.769958658E+02  5.060000000E+00  0.00000E+00  1.000E+00
     -13     1     6     6     0     0 -3.540433041E+01 -7.848588122E+01 -1.041345681E+02  1.351203893E+02  1.057000000E-01  0.00000E+00  1.000E+00
      14     1     6     6     0     0 -2.391666428E+01 -1.855144894E+02 -4.278353116E+02  4.669375616E+02  0.000000000E+00  0.00000E+00 -1.000E+00
      11     1     8     8     0     0  3.537981162E+00  2.830657917E+01 -2.851073743E+02  2.865309662E+02  5.100000000E-04  0.00000E+00 -1.000E+00
     -12     1     8     8     0     0  3.574348765E+01  2.374029171E+02 -9.342136750E+02  9.645687806E+02  0.000000000E+00  0.00000E+00  1.000E+00
#rwgt            1           6   81.370886188958451               10       30200           0
<rwgt>
<wgt id='1001'>0.81104E+02</wgt>
<wgt id='1002'>0.96938E+02</wgt>
<wgt id='1003'>0.65191E+02</wgt>
<wgt id='1004'>0.95955E+02</wgt>
<wgt id='1005'>0.10686E+03</wgt>
<wgt id='1006'>0.85048E+02</wgt>
<wgt id='1007'>0.51387E+02</wgt>
<wgt id='1008'>0.74600E+02</wgt>
<wgt id='1009'>0.27968E+02</wgt>
<wgt id='2000'>0.81104E+02</wgt>
<wgt id='2001'>0.81066E+02</wgt>
<wgt id='2002'>0.80411E+02</wgt>
<wgt id='2003'>0.81626E+02</wgt>
<wgt id='2004'>0.80873E+02</wgt>
<wgt id='2005'>0.81520E+02</wgt>
<wgt id='2006'>0.81389E+02</wgt>
<wgt id='2007'>0.80009E+02</wgt>
<wgt id='2008'>0.80862E+02</wgt>
<wgt id='2009'>0.81860E+02</wgt>
<wgt id='2010'>0.82038E+02</wgt>
<wgt id='2011'>0.80669E+02</wgt>
<wgt id='2012'>0.81978E+02</wgt>
<wgt id='2013'>0.81550E+02</wgt>
<wgt id='2014'>0.80932E+02</wgt>
<wgt id='2015'>0.81501E+02</wgt>
<wgt id='2016'>0.81732E+02</wgt>
<wgt id='2017'>0.80768E+02</wgt>
<wgt id='2018'>0.80772E+02</wgt>
<wgt id='2019'>0.80786E+02</wgt>
<wgt id='2020'>0.80714E+02</wgt>
<wgt id='2021'>0.80807E+02</wgt>
<wgt id='2022'>0.82163E+02</wgt>
<wgt id='2023'>0.81006E+02</wgt>
<wgt id='2024'>0.81674E+02</wgt>
<wgt id='2025'>0.79061E+02</wgt>
<wgt id='2026'>0.81450E+02</wgt>
<wgt id='2027'>0.82048E+02</wgt>
<wgt id='2028'>0.82164E+02</wgt>
<wgt id='2029'>0.81816E+02</wgt>
<wgt id='2030'>0.79619E+02</wgt>
<wgt id='2031'>0.82159E+02</wgt>
<wgt id='2032'>0.80875E+02</wgt>
<wgt id='2033'>0.79199E+02</wgt>
<wgt id='2034'>0.81722E+02</wgt>
<wgt id='2035'>0.80796E+02</wgt>
<wgt id='2036'>0.80120E+02</wgt>
<wgt id='2037'>0.80408E+02</wgt>
<wgt id='2038'>0.80211E+02</wgt>
<wgt id='2039'>0.81081E+02</wgt>
<wgt id='2040'>0.81694E+02</wgt>
<wgt id='2041'>0.80559E+02</wgt>
<wgt id='2042'>0.79672E+02</wgt>
<wgt id='2043'>0.80810E+02</wgt>
<wgt id='2044'>0.80573E+02</wgt>
<wgt id='2045'>0.81012E+02</wgt>
<wgt id='2046'>0.80623E+02</wgt>
<wgt id='2047'>0.81466E+02</wgt>
<wgt id='2048'>0.81417E+02</wgt>
<wgt id='2049'>0.82018E+02</wgt>
<wgt id='2050'>0.80701E+02</wgt>
<wgt id='2051'>0.81219E+02</wgt>
<wgt id='2052'>0.81197E+02</wgt>
<wgt id='2053'>0.81319E+02</wgt>
<wgt id='2054'>0.81417E+02</wgt>
<wgt id='2055'>0.81093E+02</wgt>
<wgt id='2056'>0.81852E+02</wgt>
<wgt id='2057'>0.80783E+02</wgt>
<wgt id='2058'>0.81437E+02</wgt>
<wgt id='2059'>0.81381E+02</wgt>
<wgt id='2060'>0.81449E+02</wgt>
<wgt id='2061'>0.81077E+02</wgt>
<wgt id='2062'>0.81343E+02</wgt>
<wgt id='2063'>0.80676E+02</wgt>
<wgt id='2064'>0.80999E+02</wgt>
<wgt id='2065'>0.81221E+02</wgt>
<wgt id='2066'>0.81246E+02</wgt>
<wgt id='2067'>0.81465E+02</wgt>
<wgt id='2068'>0.81038E+02</wgt>
<wgt id='2069'>0.80971E+02</wgt>
<wgt id='2070'>0.80748E+02</wgt>
<wgt id='2071'>0.81112E+02</wgt>
<wgt id='2072'>0.81117E+02</wgt>
<wgt id='2073'>0.81439E+02</wgt>
<wgt id='2074'>0.81280E+02</wgt>
<wgt id='2075'>0.80845E+02</wgt>
<wgt id='2076'>0.81176E+02</wgt>
<wgt id='2077'>0.81167E+02</wgt>
<wgt id='2078'>0.81068E+02</wgt>
<wgt id='2079'>0.81197E+02</wgt>
<wgt id='2080'>0.80930E+02</wgt>
<wgt id='2081'>0.80889E+02</wgt>
<wgt id='2082'>0.81059E+02</wgt>
<wgt id='2083'>0.81220E+02</wgt>
<wgt id='2084'>0.81153E+02</wgt>
<wgt id='2085'>0.80859E+02</wgt>
<wgt id='2086'>0.80867E+02</wgt>
<wgt id='2087'>0.81134E+02</wgt>
<wgt id='2088'>0.80971E+02</wgt>
<wgt id='2089'>0.80990E+02</wgt>
<wgt id='2090'>0.81152E+02</wgt>
<wgt id='2091'>0.80969E+02</wgt>
<wgt id='2092'>0.81049E+02</wgt>
<wgt id='2093'>0.81067E+02</wgt>
<wgt id='2094'>0.81082E+02</wgt>
<wgt id='2095'>0.81069E+02</wgt>
<wgt id='2096'>0.81161E+02</wgt>
<wgt id='2097'>0.81222E+02</wgt>
<wgt id='2098'>0.81261E+02</wgt>
<wgt id='2099'>0.81157E+02</wgt>
<wgt id='2100'>0.81104E+02</wgt>
<wgt id='2101'>0.80362E+02</wgt>
<wgt id='2102'>0.82778E+02</wgt>
<wgt id='2200'>0.80899E+02</wgt>
<wgt id='2201'>0.74135E+02</wgt>
<wgt id='2202'>0.74666E+02</wgt>
<wgt id='2203'>0.75954E+02</wgt>
<wgt id='2204'>0.77396E+02</wgt>
<wgt id='2205'>0.80326E+02</wgt>
<wgt id='2206'>0.81809E+02</wgt>
<wgt id='2207'>0.83569E+02</wgt>
<wgt id='2208'>0.84130E+02</wgt>
<wgt id='2300'>0.75878E+02</wgt>
<wgt id='2301'>0.76317E+02</wgt>
<wgt id='2302'>0.75275E+02</wgt>
<wgt id='2303'>0.76190E+02</wgt>
<wgt id='2304'>0.75667E+02</wgt>
<wgt id='2305'>0.76070E+02</wgt>
<wgt id='2306'>0.76064E+02</wgt>
<wgt id='2307'>0.76127E+02</wgt>
<wgt id='2308'>0.75838E+02</wgt>
<wgt id='2309'>0.76029E+02</wgt>
<wgt id='2310'>0.75764E+02</wgt>
<wgt id='2311'>0.75431E+02</wgt>
<wgt id='2312'>0.75574E+02</wgt>
<wgt id='2313'>0.76323E+02</wgt>
<wgt id='2314'>0.76094E+02</wgt>
<wgt id='2315'>0.75184E+02</wgt>
<wgt id='2316'>0.76943E+02</wgt>
<wgt id='2317'>0.75110E+02</wgt>
<wgt id='2318'>0.75789E+02</wgt>
<wgt id='2319'>0.75448E+02</wgt>
<wgt id='2320'>0.75472E+02</wgt>
<wgt id='2321'>0.76875E+02</wgt>
<wgt id='2322'>0.75868E+02</wgt>
<wgt id='2323'>0.75874E+02</wgt>
<wgt id='2324'>0.76591E+02</wgt>
<wgt id='2325'>0.75600E+02</wgt>
<wgt id='2326'>0.75718E+02</wgt>
<wgt id='2327'>0.75565E+02</wgt>
<wgt id='2328'>0.76043E+02</wgt>
<wgt id='2329'>0.76488E+02</wgt>
<wgt id='2330'>0.74037E+02</wgt>
<wgt id='2331'>0.75836E+02</wgt>
<wgt id='2332'>0.76039E+02</wgt>
<wgt id='2333'>0.76328E+02</wgt>
<wgt id='2334'>0.75638E+02</wgt>
<wgt id='2335'>0.76618E+02</wgt>
<wgt id='2336'>0.74667E+02</wgt>
<wgt id='2337'>0.78282E+02</wgt>
<wgt id='2338'>0.74173E+02</wgt>
<wgt id='2339'>0.75674E+02</wgt>
<wgt id='2340'>0.74788E+02</wgt>
<wgt id='2341'>0.76233E+02</wgt>
<wgt id='2342'>0.75578E+02</wgt>
<wgt id='2343'>0.75813E+02</wgt>
<wgt id='2344'>0.76359E+02</wgt>
<wgt id='2345'>0.76309E+02</wgt>
<wgt id='2346'>0.76072E+02</wgt>
<wgt id='2347'>0.75776E+02</wgt>
<wgt id='2348'>0.75884E+02</wgt>
<wgt id='2349'>0.75882E+02</wgt>
<wgt id='2350'>0.75929E+02</wgt>
<wgt id='2351'>0.75956E+02</wgt>
<wgt id='2352'>0.75663E+02</wgt>
<wgt id='2353'>0.76414E+02</wgt>
<wgt id='2354'>0.75680E+02</wgt>
<wgt id='2355'>0.76062E+02</wgt>
<wgt id='2356'>0.76331E+02</wgt>
<wgt id='2357'>0.75778E+02</wgt>
<wgt id='2358'>0.75388E+02</wgt>
<wgt id='2359'>0.75891E+02</wgt>
<wgt id='2360'>0.75152E+02</wgt>
<wgt id='2361'>0.75679E+02</wgt>
<wgt id='2362'>0.76522E+02</wgt>
<wgt id='2363'>0.75601E+02</wgt>
<wgt id='2364'>0.75319E+02</wgt>
<wgt id='2365'>0.76235E+02</wgt>
<wgt id='2366'>0.76493E+02</wgt>
<wgt id='2367'>0.76161E+02</wgt>
<wgt id='2368'>0.76256E+02</wgt>
<wgt id='2369'>0.75918E+02</wgt>
<wgt id='2370'>0.75996E+02</wgt>
<wgt id='2371'>0.75635E+02</wgt>
<wgt id='2372'>0.75970E+02</wgt>
<wgt id='2373'>0.75879E+02</wgt>
<wgt id='2374'>0.76095E+02</wgt>
<wgt id='2375'>0.76316E+02</wgt>
<wgt id='2376'>0.76521E+02</wgt>
<wgt id='2377'>0.76010E+02</wgt>
<wgt id='2378'>0.75655E+02</wgt>
<wgt id='2379'>0.75693E+02</wgt>
<wgt id='2380'>0.76011E+02</wgt>
<wgt id='2381'>0.75830E+02</wgt>
<wgt id='2382'>0.75778E+02</wgt>
<wgt id='2383'>0.75895E+02</wgt>
<wgt id='2384'>0.76085E+02</wgt>
<wgt id='2385'>0.75938E+02</wgt>
<wgt id='2386'>0.75809E+02</wgt>
<wgt id='2387'>0.76065E+02</wgt>
<wgt id='2388'>0.75646E+02</wgt>
<wgt id='2389'>0.76129E+02</wgt>
<wgt id='2390'>0.76162E+02</wgt>
<wgt id='2391'>0.75734E+02</wgt>
<wgt id='2392'>0.75628E+02</wgt>
<wgt id='2393'>0.75684E+02</wgt>
<wgt id='2394'>0.75873E+02</wgt>
<wgt id='2395'>0.76019E+02</wgt>
<wgt id='2396'>0.75967E+02</wgt>
<wgt id='2397'>0.75933E+02</wgt>
<wgt id='2398'>0.75857E+02</wgt>
<wgt id='2399'>0.76239E+02</wgt>
<wgt id='2400'>0.75681E+02</wgt>
<wgt id='2401'>0.75542E+02</wgt>
<wgt id='2402'>0.77534E+02</wgt>
<wgt id='2500'>0.78331E+02</wgt>
<wgt id='2501'>0.76849E+02</wgt>
<wgt id='2600'>0.78042E+02</wgt>
<wgt id='2601'>0.77571E+02</wgt>
<wgt id='2602'>0.78015E+02</wgt>
<wgt id='2603'>0.78163E+02</wgt>
<wgt id='2604'>0.78062E+02</wgt>
<wgt id='2605'>0.77312E+02</wgt>
<wgt id='2606'>0.78504E+02</wgt>
<wgt id='2607'>0.78254E+02</wgt>
<wgt id='2608'>0.78425E+02</wgt>
<wgt id='2609'>0.78221E+02</wgt>
<wgt id='2610'>0.78459E+02</wgt>
<wgt id='2611'>0.77337E+02</wgt>
<wgt id='2612'>0.78221E+02</wgt>
<wgt id='2613'>0.77476E+02</wgt>
<wgt id='2614'>0.77450E+02</wgt>
<wgt id='2615'>0.78306E+02</wgt>
<wgt id='2616'>0.78181E+02</wgt>
<wgt id='2617'>0.78124E+02</wgt>
<wgt id='2618'>0.77985E+02</wgt>
<wgt id='2619'>0.77546E+02</wgt>
<wgt id='2620'>0.78536E+02</wgt>
<wgt id='2621'>0.79069E+02</wgt>
<wgt id='2622'>0.77932E+02</wgt>
<wgt id='2623'>0.78161E+02</wgt>
<wgt id='2624'>0.79818E+02</wgt>
<wgt id='2625'>0.77969E+02</wgt>
<wgt id='2626'>0.77373E+02</wgt>
<wgt id='2627'>0.78499E+02</wgt>
<wgt id='2628'>0.77616E+02</wgt>
<wgt id='2629'>0.77969E+02</wgt>
<wgt id='2630'>0.78192E+02</wgt>
<wgt id='2631'>0.77994E+02</wgt>
<wgt id='2632'>0.78062E+02</wgt>
<wgt id='2633'>0.77861E+02</wgt>
<wgt id='2634'>0.77712E+02</wgt>
<wgt id='2635'>0.78129E+02</wgt>
<wgt id='2636'>0.77823E+02</wgt>
<wgt id='2637'>0.77386E+02</wgt>
<wgt id='2638'>0.77875E+02</wgt>
<wgt id='2639'>0.78418E+02</wgt>
<wgt id='2640'>0.78339E+02</wgt>
<wgt id='2641'>0.78017E+02</wgt>
<wgt id='2642'>0.78003E+02</wgt>
<wgt id='2643'>0.78346E+02</wgt>
<wgt id='2644'>0.78009E+02</wgt>
<wgt id='2645'>0.78028E+02</wgt>
<wgt id='2646'>0.78012E+02</wgt>
<wgt id='2647'>0.78082E+02</wgt>
<wgt id='2648'>0.77877E+02</wgt>
<wgt id='2649'>0.77966E+02</wgt>
<wgt id='2650'>0.77912E+02</wgt>
<wgt id='2651'>0.79144E+02</wgt>
<wgt id='2652'>0.77818E+02</wgt>
<wgt id='2700'>0.79400E+02</wgt>
<wgt id='2701'>0.79144E+02</wgt>
<wgt id='2702'>0.77943E+02</wgt>
<wgt id='2703'>0.78190E+02</wgt>
<wgt id='2704'>0.77818E+02</wgt>
<wgt id='2705'>0.78030E+02</wgt>
<wgt id='2800'>0.82970E+02</wgt>
<wgt id='4000'>0.79716E+02</wgt>
<wgt id='4001'>0.79760E+02</wgt>
<wgt id='4002'>0.78406E+02</wgt>
<wgt id='4003'>0.76979E+02</wgt>
<wgt id='4004'>0.81196E+02</wgt>
<wgt id='4005'>0.77588E+02</wgt>
<wgt id='4006'>0.80829E+02</wgt>
<wgt id='4007'>0.77676E+02</wgt>
<wgt id='4008'>0.81214E+02</wgt>
<wgt id='4009'>0.77096E+02</wgt>
<wgt id='4010'>0.81453E+02</wgt>
<wgt id='4011'>0.77926E+02</wgt>
<wgt id='4012'>0.77789E+02</wgt>
<wgt id='4013'>0.80574E+02</wgt>
<wgt id='4014'>0.80837E+02</wgt>
<wgt id='4015'>0.81925E+02</wgt>
<wgt id='4016'>0.77421E+02</wgt>
<wgt id='4017'>0.79241E+02</wgt>
<wgt id='4018'>0.79835E+02</wgt>
<wgt id='4019'>0.81076E+02</wgt>
<wgt id='4020'>0.77788E+02</wgt>
<wgt id='4021'>0.79312E+02</wgt>
<wgt id='4022'>0.80208E+02</wgt>
<wgt id='4023'>0.78325E+02</wgt>
<wgt id='4024'>0.82123E+02</wgt>
<wgt id='4025'>0.79701E+02</wgt>
<wgt id='4026'>0.79258E+02</wgt>
<wgt id='4027'>0.78665E+02</wgt>
<wgt id='4028'>0.80511E+02</wgt>
<wgt id='4029'>0.79090E+02</wgt>
<wgt id='4030'>0.84124E+02</wgt>
<wgt id='4031'>0.78745E+02</wgt>
<wgt id='4032'>0.79761E+02</wgt>
<wgt id='4033'>0.82891E+02</wgt>
<wgt id='4034'>0.77561E+02</wgt>
<wgt id='4035'>0.80185E+02</wgt>
<wgt id='4036'>0.79185E+02</wgt>
<wgt id='4037'>0.79677E+02</wgt>
<wgt id='4038'>0.79012E+02</wgt>
<wgt id='4039'>0.76739E+02</wgt>
<wgt id='4040'>0.82272E+02</wgt>
<wgt id='4041'>0.80189E+02</wgt>
<wgt id='4042'>0.79444E+02</wgt>
<wgt id='4043'>0.81239E+02</wgt>
<wgt id='4044'>0.80041E+02</wgt>
<wgt id='4045'>0.77030E+02</wgt>
<wgt id='4046'>0.80725E+02</wgt>
<wgt id='4047'>0.78356E+02</wgt>
<wgt id='4048'>0.81580E+02</wgt>
<wgt id='4049'>0.81308E+02</wgt>
<wgt id='4050'>0.79160E+02</wgt>
<wgt id='4051'>0.79067E+02</wgt>
<wgt id='4052'>0.79512E+02</wgt>
<wgt id='4053'>0.79245E+02</wgt>
<wgt id='4054'>0.79169E+02</wgt>
<wgt id='4055'>0.79451E+02</wgt>
<wgt id='4056'>0.80197E+02</wgt>
<wgt id='4057'>0.79581E+02</wgt>
<wgt id='4058'>0.79866E+02</wgt>
<wgt id='4100'>0.80425E+02</wgt>
<wgt id='4101'>0.80079E+02</wgt>
<wgt id='4102'>0.79351E+02</wgt>
<wgt id='4103'>0.79004E+02</wgt>
<wgt id='4200'>0.78990E+02</wgt>
<wgt id='4201'>0.79044E+02</wgt>
<wgt id='4202'>0.79305E+02</wgt>
<wgt id='4203'>0.77083E+02</wgt>
<wgt id='4204'>0.78800E+02</wgt>
<wgt id='4205'>0.79715E+02</wgt>
<wgt id='4206'>0.77987E+02</wgt>
<wgt id='4207'>0.80378E+02</wgt>
<wgt id='4208'>0.83172E+02</wgt>
<wgt id='4209'>0.78128E+02</wgt>
<wgt id='4210'>0.79617E+02</wgt>
<wgt id='4211'>0.80528E+02</wgt>
<wgt id='4212'>0.77160E+02</wgt>
<wgt id='4213'>0.78889E+02</wgt>
<wgt id='4214'>0.79160E+02</wgt>
<wgt id='4215'>0.79009E+02</wgt>
<wgt id='4216'>0.75117E+02</wgt>
<wgt id='4217'>0.76691E+02</wgt>
<wgt id='4218'>0.78814E+02</wgt>
<wgt id='4219'>0.79862E+02</wgt>
<wgt id='4220'>0.78606E+02</wgt>
<wgt id='4221'>0.77903E+02</wgt>
<wgt id='4222'>0.76429E+02</wgt>
<wgt id='4223'>0.77521E+02</wgt>
<wgt id='4224'>0.80666E+02</wgt>
<wgt id='4225'>0.79804E+02</wgt>
<wgt id='4226'>0.78257E+02</wgt>
<wgt id='4227'>0.78727E+02</wgt>
<wgt id='4228'>0.79234E+02</wgt>
<wgt id='4229'>0.78152E+02</wgt>
<wgt id='4230'>0.82534E+02</wgt>
<wgt id='4231'>0.80171E+02</wgt>
<wgt id='4232'>0.76893E+02</wgt>
<wgt id='4233'>0.79398E+02</wgt>
<wgt id='4234'>0.77278E+02</wgt>
<wgt id='4235'>0.78314E+02</wgt>
<wgt id='4236'>0.78914E+02</wgt>
<wgt id='4237'>0.78893E+02</wgt>
<wgt id='4238'>0.78574E+02</wgt>
<wgt id='4239'>0.79030E+02</wgt>
<wgt id='4240'>0.80613E+02</wgt>
<wgt id='4241'>0.78614E+02</wgt>
<wgt id='4242'>0.79288E+02</wgt>
<wgt id='4243'>0.77705E+02</wgt>
<wgt id='4244'>0.81216E+02</wgt>
<wgt id='4245'>0.79812E+02</wgt>
<wgt id='4246'>0.78177E+02</wgt>
<wgt id='4247'>0.80199E+02</wgt>
<wgt id='4248'>0.76533E+02</wgt>
<wgt id='4249'>0.76648E+02</wgt>
<wgt id='4250'>0.81321E+02</wgt>
<wgt id='4251'>0.79649E+02</wgt>
<wgt id='4252'>0.77980E+02</wgt>
<wgt id='4253'>0.77774E+02</wgt>
<wgt id='4254'>0.80919E+02</wgt>
<wgt id='4255'>0.75807E+02</wgt>
<wgt id='4256'>0.82040E+02</wgt>
<wgt id='4257'>0.78501E+02</wgt>
<wgt id='4258'>0.79146E+02</wgt>
<wgt id='4300'>0.79542E+02</wgt>
<wgt id='4301'>0.78831E+02</wgt>
<wgt id='5000'>0.80402E+02</wgt>
<wgt id='5001'>0.80464E+02</wgt>
<wgt id='5002'>0.80322E+02</wgt>
<wgt id='5003'>0.79962E+02</wgt>
<wgt id='5004'>0.80803E+02</wgt>
<wgt id='5005'>0.80182E+02</wgt>
<wgt id='5006'>0.80761E+02</wgt>
<wgt id='5007'>0.80600E+02</wgt>
<wgt id='5008'>0.80240E+02</wgt>
<wgt id='5009'>0.80390E+02</wgt>
<wgt id='5010'>0.80413E+02</wgt>
<wgt id='5011'>0.80114E+02</wgt>
<wgt id='5012'>0.80680E+02</wgt>
<wgt id='5013'>0.80445E+02</wgt>
<wgt id='5014'>0.80371E+02</wgt>
<wgt id='5015'>0.80349E+02</wgt>
<wgt id='5016'>0.80349E+02</wgt>
<wgt id='5017'>0.79815E+02</wgt>
<wgt id='5018'>0.80800E+02</wgt>
<wgt id='5019'>0.80064E+02</wgt>
<wgt id='5020'>0.80869E+02</wgt>
<wgt id='5021'>0.80825E+02</wgt>
<wgt id='5022'>0.79721E+02</wgt>
<wgt id='5023'>0.80886E+02</wgt>
<wgt id='5024'>0.79246E+02</wgt>
<wgt id='5025'>0.81045E+02</wgt>
<wgt id='5026'>0.79696E+02</wgt>
<wgt id='5027'>0.80554E+02</wgt>
<wgt id='5028'>0.79990E+02</wgt>
<wgt id='5029'>0.78922E+02</wgt>
<wgt id='5030'>0.81251E+02</wgt>
<wgt id='5031'>0.81056E+02</wgt>
<wgt id='5032'>0.78430E+02</wgt>
<wgt id='5033'>0.79761E+02</wgt>
<wgt id='5034'>0.81095E+02</wgt>
<wgt id='5035'>0.79576E+02</wgt>
<wgt id='5036'>0.81522E+02</wgt>
<wgt id='5037'>0.80300E+02</wgt>
<wgt id='5038'>0.80452E+02</wgt>
<wgt id='5039'>0.80272E+02</wgt>
<wgt id='5040'>0.80656E+02</wgt>
<wgt id='5041'>0.80984E+02</wgt>
<wgt id='5042'>0.79812E+02</wgt>
<wgt id='5043'>0.82107E+02</wgt>
<wgt id='5044'>0.78524E+02</wgt>
<wgt id='5045'>0.79926E+02</wgt>
<wgt id='5046'>0.81572E+02</wgt>
<wgt id='5047'>0.80232E+02</wgt>
<wgt id='5048'>0.81045E+02</wgt>
<wgt id='5049'>0.80236E+02</wgt>
<wgt id='5050'>0.80572E+02</wgt>
<wgt id='5051'>0.80030E+02</wgt>
<wgt id='5052'>0.80711E+02</wgt>
<wgt id='5053'>0.80261E+02</wgt>
<wgt id='5054'>0.80319E+02</wgt>
<wgt id='5055'>0.79836E+02</wgt>
<wgt id='5056'>0.80668E+02</wgt>
<wgt id='5057'>0.79370E+02</wgt>
<wgt id='5058'>0.81033E+02</wgt>
<wgt id='5059'>0.81554E+02</wgt>
<wgt id='5060'>0.79762E+02</wgt>
<wgt id='5061'>0.79570E+02</wgt>
<wgt id='5062'>0.80659E+02</wgt>
<wgt id='5063'>0.81476E+02</wgt>
<wgt id='5064'>0.80114E+02</wgt>
<wgt id='5100'>0.80402E+02</wgt>
<wgt id='5101'>0.80401E+02</wgt>
<wgt id='6000'>0.79117E+02</wgt>
<wgt id='6001'>0.75295E+02</wgt>
<wgt id='6002'>0.79272E+02</wgt>
<wgt id='6003'>0.78437E+02</wgt>
<wgt id='6004'>0.78108E+02</wgt>
<wgt id='6005'>0.78962E+02</wgt>
<wgt id='6006'>0.79445E+02</wgt>
<wgt id='6007'>0.79422E+02</wgt>
<wgt id='6008'>0.79272E+02</wgt>
<wgt id='6009'>0.79677E+02</wgt>
<wgt id='6010'>0.79192E+02</wgt>
<wgt id='6011'>0.78987E+02</wgt>
<wgt id='6012'>0.79648E+02</wgt>
<wgt id='6013'>0.79369E+02</wgt>
<wgt id='6014'>0.79422E+02</wgt>
<wgt id='6015'>0.79074E+02</wgt>
<wgt id='6016'>0.79320E+02</wgt>
<wgt id='6017'>0.80909E+02</wgt>
<wgt id='6018'>0.79231E+02</wgt>
<wgt id='6019'>0.78785E+02</wgt>
<wgt id='6020'>0.79580E+02</wgt>
<wgt id='6021'>0.78469E+02</wgt>
<wgt id='6022'>0.78841E+02</wgt>
<wgt id='6023'>0.79056E+02</wgt>
<wgt id='6024'>0.79490E+02</wgt>
<wgt id='6025'>0.79108E+02</wgt>
<wgt id='6026'>0.79169E+02</wgt>
<wgt id='6027'>0.78569E+02</wgt>
<wgt id='6028'>0.78985E+02</wgt>
<wgt id='6029'>0.79122E+02</wgt>
<wgt id='6030'>0.79167E+02</wgt>
<wgt id='6031'>0.78881E+02</wgt>
<wgt id='6032'>0.79067E+02</wgt>
<wgt id='6033'>0.79059E+02</wgt>
<wgt id='6034'>0.78823E+02</wgt>
<wgt id='6035'>0.79073E+02</wgt>
<wgt id='6036'>0.79040E+02</wgt>
<wgt id='6037'>0.79112E+02</wgt>
<wgt id='6038'>0.79209E+02</wgt>
<wgt id='6039'>0.79252E+02</wgt>
<wgt id='6040'>0.78886E+02</wgt>
<wgt id='6041'>0.79141E+02</wgt>
<wgt id='6042'>0.80042E+02</wgt>
<wgt id='7000'>0.84762E+02</wgt>
<wgt id='7001'>0.85026E+02</wgt>
<wgt id='7002'>0.84799E+02</wgt>
<wgt id='7003'>0.84811E+02</wgt>
<wgt id='7004'>0.85014E+02</wgt>
<wgt id='7005'>0.84894E+02</wgt>
<wgt id='7006'>0.84931E+02</wgt>
<wgt id='7007'>0.84669E+02</wgt>
<wgt id='7008'>0.85146E+02</wgt>
<wgt id='7009'>0.84522E+02</wgt>
<wgt id='7010'>0.85300E+02</wgt>
<wgt id='7011'>0.82068E+02</wgt>
<wgt id='7012'>0.87798E+02</wgt>
<wgt id='7013'>0.85605E+02</wgt>
<wgt id='7014'>0.84222E+02</wgt>
<wgt id='7015'>0.84705E+02</wgt>
<wgt id='7016'>0.85110E+02</wgt>
<wgt id='7017'>0.87200E+02</wgt>
<wgt id='7018'>0.82683E+02</wgt>
<wgt id='7019'>0.87128E+02</wgt>
<wgt id='7020'>0.82693E+02</wgt>
<wgt id='7021'>0.84620E+02</wgt>
<wgt id='7022'>0.85164E+02</wgt>
<wgt id='7023'>0.86529E+02</wgt>
<wgt id='7024'>0.83363E+02</wgt>
<wgt id='7025'>0.86099E+02</wgt>
<wgt id='7026'>0.83847E+02</wgt>
<wgt id='7027'>0.84502E+02</wgt>
<wgt id='7028'>0.85406E+02</wgt>
<wgt id='8000'>0.70844E+02</wgt>
<wgt id='8001'>0.70843E+02</wgt>
<wgt id='8002'>0.70856E+02</wgt>
<wgt id='8003'>0.70779E+02</wgt>
<wgt id='8004'>0.70842E+02</wgt>
<wgt id='8005'>0.70929E+02</wgt>
<wgt id='8006'>0.70595E+02</wgt>
<wgt id='8007'>0.70973E+02</wgt>
<wgt id='8008'>0.70960E+02</wgt>
<wgt id='8009'>0.70128E+02</wgt>
<wgt id='8010'>0.71040E+02</wgt>
<wgt id='8011'>0.71048E+02</wgt>
<wgt id='8012'>0.71288E+02</wgt>
<wgt id='8013'>0.70842E+02</wgt>
<wgt id='8014'>0.70838E+02</wgt>
<wgt id='8015'>0.71552E+02</wgt>
<wgt id='8016'>0.70662E+02</wgt>
<wgt id='8017'>0.70807E+02</wgt>
<wgt id='8018'>0.70824E+02</wgt>
<wgt id='8019'>0.70906E+02</wgt>
<wgt id='8020'>0.71514E+02</wgt>
<wgt id='8021'>0.70956E+02</wgt>
<wgt id='8022'>0.70711E+02</wgt>
<wgt id='8023'>0.71709E+02</wgt>
<wgt id='8024'>0.71281E+02</wgt>
<wgt id='8025'>0.70876E+02</wgt>
<wgt id='8026'>0.70961E+02</wgt>
<wgt id='8027'>0.71310E+02</wgt>
<wgt id='8028'>0.69891E+02</wgt>
<wgt id='8029'>0.70234E+02</wgt>
<wgt id='3000'>0.81104E+02</wgt>
<wgt id='3001'>0.87327E+02</wgt>
<wgt id='3002'>0.83268E+02</wgt>
<wgt id='3003'>0.77137E+02</wgt>
<wgt id='3004'>0.89802E+02</wgt>
<wgt id='3005'>0.84276E+02</wgt>
<wgt id='3006'>0.84187E+02</wgt>
<wgt id='3007'>0.76034E+02</wgt>
<wgt id='3008'>0.75034E+02</wgt>
<wgt id='3009'>0.85903E+02</wgt>
<wgt id='3010'>0.74623E+02</wgt>
<wgt id='3011'>0.78519E+02</wgt>
<wgt id='3012'>0.86865E+02</wgt>
<wgt id='3013'>0.75856E+02</wgt>
<wgt id='3014'>0.83282E+02</wgt>
<wgt id='3015'>0.71800E+02</wgt>
<wgt id='3016'>0.80233E+02</wgt>
<wgt id='3017'>0.82707E+02</wgt>
<wgt id='3018'>0.82145E+02</wgt>
<wgt id='3019'>0.84877E+02</wgt>
<wgt id='3020'>0.71938E+02</wgt>
<wgt id='3021'>0.85887E+02</wgt>
<wgt id='3022'>0.85288E+02</wgt>
<wgt id='3023'>0.87661E+02</wgt>
<wgt id='3024'>0.84177E+02</wgt>
<wgt id='3025'>0.83736E+02</wgt>
<wgt id='3026'>0.80355E+02</wgt>
<wgt id='3027'>0.86600E+02</wgt>
<wgt id='3028'>0.82014E+02</wgt>
<wgt id='3029'>0.84790E+02</wgt>
<wgt id='3030'>0.73564E+02</wgt>
<wgt id='3031'>0.80825E+02</wgt>
<wgt id='3032'>0.80232E+02</wgt>
<wgt id='3033'>0.85873E+02</wgt>
<wgt id='3034'>0.77142E+02</wgt>
<wgt id='3035'>0.74981E+02</wgt>
<wgt id='3036'>0.76816E+02</wgt>
<wgt id='3037'>0.76258E+02</wgt>
<wgt id='3038'>0.79968E+02</wgt>
<wgt id='3039'>0.70540E+02</wgt>
<wgt id='3040'>0.72603E+02</wgt>
<wgt id='3041'>0.92773E+02</wgt>
<wgt id='3042'>0.89976E+02</wgt>
<wgt id='3043'>0.85806E+02</wgt>
<wgt id='3044'>0.82827E+02</wgt>
<wgt id='3045'>0.77223E+02</wgt>
<wgt id='3046'>0.82307E+02</wgt>
<wgt id='3047'>0.79231E+02</wgt>
<wgt id='3048'>0.85174E+02</wgt>
<wgt id='3049'>0.89538E+02</wgt>
<wgt id='3050'>0.76332E+02</wgt>
<wgt id='3051'>0.90537E+02</wgt>
<wgt id='3052'>0.79965E+02</wgt>
<wgt id='3053'>0.77622E+02</wgt>
<wgt id='3054'>0.93468E+02</wgt>
<wgt id='3055'>0.73878E+02</wgt>
<wgt id='3056'>0.85323E+02</wgt>
<wgt id='3057'>0.80129E+02</wgt>
<wgt id='3058'>0.81239E+02</wgt>
<wgt id='3059'>0.81303E+02</wgt>
<wgt id='3060'>0.92394E+02</wgt>
<wgt id='3061'>0.79972E+02</wgt>
<wgt id='3062'>0.86423E+02</wgt>
<wgt id='3063'>0.75761E+02</wgt>
<wgt id='3064'>0.80644E+02</wgt>
<wgt id='3065'>0.91075E+02</wgt>
<wgt id='3066'>0.83165E+02</wgt>
<wgt id='3067'>0.84468E+02</wgt>
<wgt id='3068'>0.84142E+02</wgt>
<wgt id='3069'>0.83291E+02</wgt>
<wgt id='3070'>0.73511E+02</wgt>
<wgt id='3071'>0.78600E+02</wgt>
<wgt id='3072'>0.81817E+02</wgt>
<wgt id='3073'>0.84045E+02</wgt>
<wgt id='3074'>0.80258E+02</wgt>
<wgt id='3075'>0.76471E+02</wgt>
<wgt id='3076'>0.83178E+02</wgt>
<wgt id='3077'>0.73055E+02</wgt>
<wgt id='3078'>0.85120E+02</wgt>
<wgt id='3079'>0.85139E+02</wgt>
<wgt id='3080'>0.70509E+02</wgt>
<wgt id='3081'>0.77594E+02</wgt>
<wgt id='3082'>0.80233E+02</wgt>
<wgt id='3083'>0.73808E+02</wgt>
<wgt id='3084'>0.82907E+02</wgt>
<wgt id='3085'>0.73826E+02</wgt>
<wgt id='3086'>0.72612E+02</wgt>
<wgt id='3087'>0.81762E+02</wgt>
<wgt id='3088'>0.64644E+02</wgt>
<wgt id='3089'>0.79992E+02</wgt>
<wgt id='3090'>0.76082E+02</wgt>
<wgt id='3091'>0.78533E+02</wgt>
<wgt id='3092'>0.75018E+02</wgt>
<wgt id='3093'>0.80233E+02</wgt>
<wgt id='3094'>0.88974E+02</wgt>
<wgt id='3095'>0.85300E+02</wgt>
<wgt id='3096'>0.79537E+02</wgt>
<wgt id='3097'>0.87636E+02</wgt>
<wgt id='3098'>0.78438E+02</wgt>
<wgt id='3099'>0.80428E+02</wgt>
<wgt id='3100'>0.90104E+02</wgt>
<wgt id='3200'>0.78271E+02</wgt>
<wgt id='3201'>0.77946E+02</wgt>
<wgt id='3202'>0.78767E+02</wgt>
<wgt id='3203'>0.77324E+02</wgt>
<wgt id='3204'>0.77897E+02</wgt>
<wgt id='3205'>0.83519E+02</wgt>
<wgt id='3206'>0.78466E+02</wgt>
<wgt id='3207'>0.77109E+02</wgt>
<wgt id='3208'>0.82151E+02</wgt>
<wgt id='3209'>0.79595E+02</wgt>
<wgt id='3210'>0.78817E+02</wgt>
<wgt id='3211'>0.79966E+02</wgt>
<wgt id='3212'>0.72551E+02</wgt>
<wgt id='3213'>0.77211E+02</wgt>
<wgt id='3214'>0.80216E+02</wgt>
<wgt id='3215'>0.79749E+02</wgt>
<wgt id='3216'>0.78737E+02</wgt>
<wgt id='3217'>0.80302E+02</wgt>
<wgt id='3218'>0.80406E+02</wgt>
<wgt id='3219'>0.79597E+02</wgt>
<wgt id='3220'>0.76215E+02</wgt>
<wgt id='3221'>0.79966E+02</wgt>
<wgt id='3222'>0.75587E+02</wgt>
<wgt id='3223'>0.79560E+02</wgt>
<wgt id='3224'>0.71335E+02</wgt>
<wgt id='3225'>0.77699E+02</wgt>
<wgt id='3226'>0.71052E+02</wgt>
<wgt id='3227'>0.77572E+02</wgt>
<wgt id='3228'>0.79095E+02</wgt>
<wgt id='3229'>0.79765E+02</wgt>
<wgt id='3230'>0.76806E+02</wgt>
<wgt id='3231'>0.80058E+02</wgt>
<wgt id='3232'>0.80041E+02</wgt>
<wgt id='3233'>0.79742E+02</wgt>
<wgt id='3234'>0.79802E+02</wgt>
<wgt id='3235'>0.76055E+02</wgt>
<wgt id='3236'>0.79937E+02</wgt>
<wgt id='3237'>0.78388E+02</wgt>
<wgt id='3238'>0.77174E+02</wgt>
<wgt id='3239'>0.81130E+02</wgt>
<wgt id='3240'>0.73685E+02</wgt>
<wgt id='3241'>0.84404E+02</wgt>
<wgt id='3242'>0.72567E+02</wgt>
<wgt id='3243'>0.74527E+02</wgt>
<wgt id='3244'>0.75568E+02</wgt>
<wgt id='3245'>0.79907E+02</wgt>
<wgt id='3246'>0.76624E+02</wgt>
<wgt id='3247'>0.75522E+02</wgt>
<wgt id='3248'>0.79834E+02</wgt>
<wgt id='3249'>0.78011E+02</wgt>
<wgt id='3250'>0.75150E+02</wgt>
<wgt id='3251'>0.75401E+02</wgt>
<wgt id='3252'>0.79761E+02</wgt>
<wgt id='3253'>0.82305E+02</wgt>
<wgt id='3254'>0.79448E+02</wgt>
<wgt id='3255'>0.71243E+02</wgt>
<wgt id='3256'>0.77877E+02</wgt>
<wgt id='3257'>0.70701E+02</wgt>
<wgt id='3258'>0.78164E+02</wgt>
<wgt id='3259'>0.78679E+02</wgt>
<wgt id='3260'>0.76074E+02</wgt>
<wgt id='3261'>0.80289E+02</wgt>
<wgt id='3262'>0.80916E+02</wgt>
<wgt id='3263'>0.83350E+02</wgt>
<wgt id='3264'>0.73739E+02</wgt>
<wgt id='3265'>0.76144E+02</wgt>
<wgt id='3266'>0.78388E+02</wgt>
<wgt id='3267'>0.76902E+02</wgt>
<wgt id='3268'>0.80542E+02</wgt>
<wgt id='3269'>0.75235E+02</wgt>
<wgt id='3270'>0.77948E+02</wgt>
<wgt id='3271'>0.81447E+02</wgt>
<wgt id='3272'>0.79910E+02</wgt>
<wgt id='3273'>0.80917E+02</wgt>
<wgt id='3274'>0.78512E+02</wgt>
<wgt id='3275'>0.78256E+02</wgt>
<wgt id='3276'>0.75332E+02</wgt>
<wgt id='3277'>0.85040E+02</wgt>
<wgt id='3278'>0.79785E+02</wgt>
<wgt id='3279'>0.82279E+02</wgt>
<wgt id='3280'>0.80070E+02</wgt>
<wgt id='3281'>0.79067E+02</wgt>
<wgt id='3282'>0.78191E+02</wgt>
<wgt id='3283'>0.78719E+02</wgt>
<wgt id='3284'>0.79988E+02</wgt>
<wgt id='3285'>0.76622E+02</wgt>
<wgt id='3286'>0.80302E+02</wgt>
<wgt id='3287'>0.80354E+02</wgt>
<wgt id='3288'>0.82014E+02</wgt>
<wgt id='3289'>0.72380E+02</wgt>
<wgt id='3290'>0.71761E+02</wgt>
<wgt id='3291'>0.72094E+02</wgt>
<wgt id='3292'>0.79468E+02</wgt>
<wgt id='3293'>0.79799E+02</wgt>
<wgt id='3294'>0.78474E+02</wgt>
<wgt id='3295'>0.82685E+02</wgt>
<wgt id='3296'>0.77526E+02</wgt>
<wgt id='3297'>0.79438E+02</wgt>
<wgt id='3298'>0.75985E+02</wgt>
<wgt id='3299'>0.81896E+02</wgt>
<wgt id='3300'>0.82976E+02</wgt>
<wgt id='3301'>0.79144E+02</wgt>
<wgt id='3302'>0.77818E+02</wgt>
<wgt id='3400'>0.78604E+02</wgt>
<wgt id='3401'>0.77906E+02</wgt>
<wgt id='3402'>0.74028E+02</wgt>
<wgt id='3403'>0.79909E+02</wgt>
<wgt id='3404'>0.81127E+02</wgt>
<wgt id='3405'>0.76374E+02</wgt>
<wgt id='3406'>0.80798E+02</wgt>
<wgt id='3407'>0.76429E+02</wgt>
<wgt id='3408'>0.76396E+02</wgt>
<wgt id='3409'>0.77393E+02</wgt>
<wgt id='3410'>0.79477E+02</wgt>
<wgt id='3411'>0.78067E+02</wgt>
<wgt id='3412'>0.77561E+02</wgt>
<wgt id='3413'>0.78722E+02</wgt>
<wgt id='3414'>0.81591E+02</wgt>
<wgt id='3415'>0.78554E+02</wgt>
<wgt id='3416'>0.82242E+02</wgt>
<wgt id='3417'>0.79296E+02</wgt>
<wgt id='3418'>0.81904E+02</wgt>
<wgt id='3419'>0.80799E+02</wgt>
<wgt id='3420'>0.82045E+02</wgt>
<wgt id='3421'>0.76832E+02</wgt>
<wgt id='3422'>0.77325E+02</wgt>
<wgt id='3423'>0.80361E+02</wgt>
<wgt id='3424'>0.76345E+02</wgt>
<wgt id='3425'>0.77764E+02</wgt>
<wgt id='3426'>0.75875E+02</wgt>
<wgt id='3427'>0.78121E+02</wgt>
<wgt id='3428'>0.79136E+02</wgt>
<wgt id='3429'>0.79361E+02</wgt>
<wgt id='3430'>0.80520E+02</wgt>
<wgt id='3431'>0.78243E+02</wgt>
<wgt id='3432'>0.82620E+02</wgt>
<wgt id='3433'>0.75757E+02</wgt>
<wgt id='3434'>0.77035E+02</wgt>
<wgt id='3435'>0.76423E+02</wgt>
<wgt id='3436'>0.78834E+02</wgt>
<wgt id='3437'>0.79628E+02</wgt>
<wgt id='3438'>0.78247E+02</wgt>
<wgt id='3439'>0.83333E+02</wgt>
<wgt id='3440'>0.79226E+02</wgt>
<wgt id='3441'>0.80357E+02</wgt>
<wgt id='3442'>0.80517E+02</wgt>
<wgt id='3443'>0.77236E+02</wgt>
<wgt id='3444'>0.77993E+02</wgt>
<wgt id='3445'>0.77474E+02</wgt>
<wgt id='3446'>0.78800E+02</wgt>
<wgt id='3447'>0.75577E+02</wgt>
<wgt id='3448'>0.84375E+02</wgt>
<wgt id='3449'>0.80705E+02</wgt>
<wgt id='3450'>0.74974E+02</wgt>
<wgt id='3451'>0.82350E+02</wgt>
<wgt id='3452'>0.77087E+02</wgt>
<wgt id='3453'>0.76674E+02</wgt>
<wgt id='3454'>0.77356E+02</wgt>
<wgt id='3455'>0.78677E+02</wgt>
<wgt id='3456'>0.77471E+02</wgt>
<wgt id='3457'>0.74659E+02</wgt>
<wgt id='3458'>0.79411E+02</wgt>
<wgt id='3459'>0.77579E+02</wgt>
<wgt id='3460'>0.79116E+02</wgt>
<wgt id='3461'>0.79670E+02</wgt>
<wgt id='3462'>0.70832E+02</wgt>
<wgt id='3463'>0.79349E+02</wgt>
<wgt id='3464'>0.76181E+02</wgt>
<wgt id='3465'>0.74983E+02</wgt>
<wgt id='3466'>0.78194E+02</wgt>
<wgt id='3467'>0.79392E+02</wgt>
<wgt id='3468'>0.82161E+02</wgt>
<wgt id='3469'>0.78909E+02</wgt>
<wgt id='3470'>0.80596E+02</wgt>
<wgt id='3471'>0.77381E+02</wgt>
<wgt id='3472'>0.77385E+02</wgt>
<wgt id='3473'>0.78678E+02</wgt>
<wgt id='3474'>0.79777E+02</wgt>
<wgt id='3475'>0.78699E+02</wgt>
<wgt id='3476'>0.78742E+02</wgt>
<wgt id='3477'>0.76935E+02</wgt>
<wgt id='3478'>0.78106E+02</wgt>
<wgt id='3479'>0.74352E+02</wgt>
<wgt id='3480'>0.83456E+02</wgt>
<wgt id='3481'>0.72654E+02</wgt>
<wgt id='3482'>0.76086E+02</wgt>
<wgt id='3483'>0.77219E+02</wgt>
<wgt id='3484'>0.79627E+02</wgt>
<wgt id='3485'>0.78916E+02</wgt>
<wgt id='3486'>0.82705E+02</wgt>
<wgt id='3487'>0.76345E+02</wgt>
<wgt id='3488'>0.78215E+02</wgt>
<wgt id='3489'>0.77099E+02</wgt>
<wgt id='3490'>0.79904E+02</wgt>
<wgt id='3491'>0.85437E+02</wgt>
<wgt id='3492'>0.81517E+02</wgt>
<wgt id='3493'>0.75445E+02</wgt>
<wgt id='3494'>0.77515E+02</wgt>
<wgt id='3495'>0.80100E+02</wgt>
<wgt id='3496'>0.80244E+02</wgt>
<wgt id='3497'>0.79968E+02</wgt>
<wgt id='3498'>0.78265E+02</wgt>
<wgt id='3499'>0.78925E+02</wgt>
<wgt id='3500'>0.80358E+02</wgt>
</rwgt>
</event>
<event>
     13 322200  8.11039E+01  3.27751E+02 -1.00000E+00  1.03237E-01
      21    -1     0     0   503   504  0.000000000E+00  0.000000000E+00  6.030687088E+02  6.030687088E+02  0.000000000E+00  0.00000E+00  9.000E+00
      21    -1     0     0   502   503  0.000000000E+00  0.000000000E+00 -1.621474308E+03  1.621474308E+03  0.000000000E+00  0.00000E+00  9.000E+00
       6     2     1     2   502     0  1.076450700E+02 -2.626822109E+02 -9.611144920E+02  1.017118836E+03  1.737822037E+02  0.00000E+00  9.000E+00
      -6     2     1     2     0   505  1.582107452E+02  7.100142785E+01 -5.577633602E+02  6.091823288E+02  1.730066506E+02  0.00000E+00  9.000E+00
      21     1     1     2   505   504 -2.658558152E+02  1.916807830E+02  5.004722533E+02  5.982418519E+02  0.000000000E+00  0.00000E+00  9.000E+00
      24     2     3     3     0     0  1.188546281E+02 -1.226031085E+02 -4.827940187E+02  5.185570162E+02  8.156819094E+01  0.00000E+00  9.000E+00
       5     1     3     3   502     0 -1.120955804E+01 -1.400791023E+02 -4.783204733E+02  4.985618196E+02  5.060000000E+00  0.00000E+00 -1.000E+00
     -24     2     4     4     0     0  8.340440064E+01  2.609354998E+01 -1.441013992E+02  1.863886106E+02  7.961365139E+01  0.00000E+00  9.000E+00
      -5     1     4     4     0   505  7.480634456E+01  4.490787787E+01 -4.136619609E+02  4.227937182E+02  5.060000000E+00  0.00000E+00  1.000E+00
     -11     1     6     6     0     0  8.352697375E+01 -6.760084370E+01 -1.874504337E+02  2.160654866E+02  5.100000000E-04  0.00000E+00  1.000E+00
      12     1     6     6     0     0  3.532765434E+01 -5.500226483E+01 -2.953435850E+02  3.024915297E+02  0.000000000E+00  0.00000E+00 -1.000E+00
      15     1     8     8     0     0  8.974636853E+01  4.026026966E+01 -1.029057218E+02  1.423658853E+02  1.777000000E+00  0.00000E+00 -1.000E+00
     -16     1     8     8     0     0 -6.341967892E+00 -1.416671968E+01 -4.119567744E+01  4.402272530E+01  0.000000000E+00  0.00000E+00  1.000E+00
#rwgt            2           1   123.38372577195976               10       30554           0
<rwgt>
<wgt id='1001'>0.81104E+02</wgt>
<wgt id='1002'>0.68421E+02</wgt>
<wgt id='1003'>0.97564E+02</wgt>
<wgt id='1004'>0.62682E+02</wgt>
<wgt id='1005'>0.52880E+02</wgt>
<wgt id='1006'>0.75404E+02</wgt>
<wgt id='1007'>0.10764E+03</wgt>
<wgt id='1008'>0.90810E+02</wgt>
<wgt id='1009'>0.12949E+03</wgt>
<wgt id='2000'>0.81104E+02</wgt>
<wgt id='2001'>0.80818E+02</wgt>
<wgt id='2002'>0.81069E+02</wgt>
<wgt id='2003'>0.81192E+02</wgt>
<wgt id='2004'>0.81300E+02</wgt>
<wgt id='2005'>0.80336E+02</wgt>
<wgt id='2006'>0.81209E+02</wgt>
<wgt id='2007'>0.80574E+02</wgt>
<wgt id='2008'>0.80437E+02</wgt>
<wgt id='2009'>0.80786E+02</wgt>
<wgt id='2010'>0.80714E+02</wgt>
<wgt id='2011'>0.82066E+02</wgt>
<wgt id='2012'>0.81179E+02</wgt>
<wgt id='2013'>0.81275E+02</wgt>
<wgt id='2014'>0.81242E+02</wgt>
<wgt id='2015'>0.81482E+02</wgt>
<wgt id='2016'>0.81376E+02</wgt>
<wgt id='2017'>0.81688E+02</wgt>
<wgt id='2018'>0.80646E+02</wgt>
<wgt id='2019'>0.80391E+02</wgt>
<wgt id='2020'>0.81478E+02</wgt>
<wgt id='2021'>0.80842E+02</wgt>
<wgt id='2022'>0.81504E+02</wgt>
<wgt id='2023'>0.81028E+02</wgt>
<wgt id='2024'>0.81344E+02</wgt>
<wgt id='2025'>0.80531E+02</wgt>
<wgt id='2026'>0.80552E+02</wgt>
<wgt id='2027'>0.81233E+02</wgt>
<wgt id='2028'>0.80604E+02</wgt>
<wgt id='2029'>0.80713E+02</wgt>
<wgt id='2030'>0.81438E+02</wgt>
<wgt id='2031'>0.80630E+02</wgt>
<wgt id='2032'>0.80840E+02</wgt>
<wgt id='2033'>0.80972E+02</wgt>
<wgt id='2034'>0.80739E+02</wgt>
<wgt id='2035'>0.81508E+02</wgt>
<wgt id='2036'>0.81320E+02</wgt>
<wgt id='2037'>0.80813E+02</wgt>
<wgt id='2038'>0.81169E+02</wgt>
<wgt id='2039'>0.81070E+02</wgt>
<wgt id='2040'>0.80885E+02</wgt>
<wgt id='2041'>0.80743E+02</wgt>
<wgt id='2042'>0.81444E+02</wgt>
<wgt id='2043'>0.81132E+02</wgt>
<wgt id='2044'>0.81228E+02</wgt>
<wgt id='2045'>0.81111E+02</wgt>
<wgt id='2046'>0.80648E+02</wgt>
<wgt id='2047'>0.81203E+02</wgt>
<wgt id='2048'>0.81091E+02</wgt>
<wgt id='2049'>0.80883E+02</wgt>
<wgt id='2050'>0.80981E+02</wgt>
<wgt id='2051'>0.80993E+02</wgt>
<wgt id='2052'>0.81309E+02</wgt>
<wgt id='2053'>0.81093E+02</wgt>
<wgt id='2054'>0.81055E+02</wgt>
<wgt id='2055'>0.80840E+02</wgt>
<wgt id='2056'>0.81069E+02</wgt>
<wgt id='2057'>0.81132E+02</wgt>
<wgt id='2058'>0.81255E+02</wgt>
<wgt id='2059'>0.81184E+02</wgt>
<wgt id='2060'>0.81032E+02</wgt>
<wgt id='2061'>0.81029E+02</wgt>
<wgt id='2062'>0.81186E+02</wgt>
<wgt id='2063'>0.81177E+02</wgt>
<wgt id='2064'>0.81084E+02</wgt>
<wgt id='2065'>0.81249E+02</wgt>
<wgt id='2066'>0.80996E+02</wgt>
<wgt id='2067'>0.80920E+02</wgt>
<wgt id='2068'>0.81356E+02</wgt>
<wgt id='2069'>0.81077E+02</wgt>
<wgt id='2070'>0.81224E+02</wgt>
<wgt id='2071'>0.80967E+02</wgt>
<wgt id='2072'>0.80955E+02</wgt>
<wgt id='2073'>0.81133E+02</wgt>
<wgt id='2074'>0.80979E+02</wgt>
<wgt id='2075'>0.81078E+02</wgt>
<wgt id='2076'>0.81117E+02</wgt>
<wgt id='2077'>0.81170E+02</wgt>
<wgt id='2078'>0.81154E+02</wgt>
<wgt id='2079'>0.81066E+02</wgt>
<wgt id='2080'>0.81085E+02</wgt>
<wgt id='2081'>0.81044E+02</wgt>
<wgt id='2082'>0.81119E+02</wgt>
<wgt id='2083'>0.81292E+02</wgt>
<wgt id='2084'>0.81065E+02</wgt>
<wgt id='2085'>0.81162E+02</wgt>
<wgt id='2086'>0.81087E+02</wgt>
<wgt id='2087'>0.81120E+02</wgt>
<wgt id='2088'>0.81055E+02</wgt>
<wgt id='2089'>0.81036E+02</wgt>
<wgt id='2090'>0.81149E+02</wgt>
<wgt id='2091'>0.81144E+02</wgt>
<wgt id='2092'>0.81198E+02</wgt>
<wgt id='2093'>0.81010E+02</wgt>
<wgt id='2094'>0.81125E+02</wgt>
<wgt id='2095'>0.81178E+02</wgt>
<wgt id='2096'>0.81070E+02</wgt>
<wgt id='2097'>0.81162E+02</wgt>
<wgt id='2098'>0.81126E+02</wgt>
<wgt id='2099'>0.81130E+02</wgt>
<wgt id='2100'>0.81104E+02</wgt>
<wgt id='2101'>0.77780E+02</wgt>
<wgt id='2102'>0.85245E+02</wgt>
<wgt id='2200'>0.81116E+02</wgt>
<wgt id='2201'>0.65231E+02</wgt>
<wgt id='2202'>0.68633E+02</wgt>
<wgt id='2203'>0.71626E+02</wgt>
<wgt id='2204'>0.73910E+02</wgt>
<wgt id='2205'>0.79204E+02</wgt>
<wgt id='2206'>0.83012E+02</wgt>
<wgt id='2207'>0.88504E+02</wgt>
<wgt id='2208'>0.92924E+02</wgt>
<wgt id='2300'>0.89482E+02</wgt>
<wgt id='2301'>0.89337E+02</wgt>
<wgt id='2302'>0.89551E+02</wgt>
<wgt id='2303'>0.89223E+02</wgt>
<wgt id='2304'>0.89941E+02</wgt>
<wgt id='2305'>0.89197E+02</wgt>
<wgt id='2306'>0.89313E+02</wgt>
<wgt id='2307'>0.89450E+02</wgt>
<wgt id='2308'>0.89533E+02</wgt>
<wgt id='2309'>0.89664E+02</wgt>
<wgt id='2310'>0.89548E+02</wgt>
<wgt id='2311'>0.89174E+02</wgt>
<wgt id='2312'>0.89092E+02</wgt>
<wgt id='2313'>0.90274E+02</wgt>
<wgt id='2314'>0.89166E+02</wgt>
<wgt id='2315'>0.89028E+02</wgt>
<wgt id='2316'>0.89477E+02</wgt>
<wgt id='2317'>0.89045E+02</wgt>
<wgt id='2318'>0.89567E+02</wgt>
<wgt id='2319'>0.90088E+02</wgt>
<wgt id='2320'>0.89857E+02</wgt>
<wgt id='2321'>0.89825E+02</wgt>
<wgt id='2322'>0.89471E+02</wgt>
<wgt id='2323'>0.89571E+02</wgt>
<wgt id='2324'>0.89475E+02</wgt>
<wgt id='2325'>0.89758E+02</wgt>
<wgt id='2326'>0.89413E+02</wgt>
<wgt id='2327'>0.89566E+02</wgt>
<wgt id='2328'>0.89273E+02</wgt>
<wgt id='2329'>0.88909E+02</wgt>
<wgt id='2330'>0.90566E+02</wgt>
<wgt id='2331'>0.89898E+02</wgt>
<wgt id='2332'>0.89493E+02</wgt>
<wgt id='2333'>0.89744E+02</wgt>
<wgt id='2334'>0.89322E+02</wgt>
<wgt id='2335'>0.89920E+02</wgt>
<wgt id='2336'>0.89497E+02</wgt>
<wgt id='2337'>0.89628E+02</wgt>
<wgt id='2338'>0.89412E+02</wgt>
<wgt id='2339'>0.89451E+02</wgt>
<wgt id='2340'>0.89340E+02</wgt>
<wgt id='2341'>0.89569E+02</wgt>
<wgt id='2342'>0.89656E+02</wgt>
<wgt id='2343'>0.89724E+02</wgt>
<wgt id='2344'>0.89391E+02</wgt>
<wgt id='2345'>0.89260E+02</wgt>
<wgt id='2346'>0.89974E+02</wgt>
<wgt id='2347'>0.89768E+02</wgt>
<wgt id='2348'>0.88994E+02</wgt>
<wgt id='2349'>0.89451E+02</wgt>
<wgt id='2350'>0.88930E+02</wgt>
<wgt id='2351'>0.89981E+02</wgt>
<wgt id='2352'>0.89319E+02</wgt>
<wgt id='2353'>0.89361E+02</wgt>
<wgt id='2354'>0.89630E+02</wgt>
<wgt id='2355'>0.90053E+02</wgt>
<wgt id='2356'>0.89279E+02</wgt>
<wgt id='2357'>0.89543E+02</wgt>
<wgt id='2358'>0.89551E+02</wgt>
<wgt id='2359'>0.89226E+02</wgt>
<wgt id='2360'>0.89690E+02</wgt>
<wgt id='2361'>0.89389E+02</wgt>
<wgt id='2362'>0.89466E+02</wgt>
<wgt id='2363'>0.89226E+02</wgt>
<wgt id='2364'>0.89673E+02</wgt>
<wgt id='2365'>0.89277E+02</wgt>
<wgt id='2366'>0.89599E+02</wgt>
<wgt id='2367'>0.89454E+02</wgt>
<wgt id='2368'>0.89433E+02</wgt>
<wgt id='2369'>0.89252E+02</wgt>
<wgt id='2370'>0.89353E+02</wgt>
<wgt id='2371'>0.89543E+02</wgt>
<wgt id='2372'>0.89480E+02</wgt>
<wgt id='2373'>0.89457E+02</wgt>
<wgt id='2374'>0.89966E+02</wgt>
<wgt id='2375'>0.89507E+02</wgt>
<wgt id='2376'>0.89666E+02</wgt>
<wgt id='2377'>0.89669E+02</wgt>
<wgt id='2378'>0.89602E+02</wgt>
<wgt id='2379'>0.89095E+02</wgt>
<wgt id='2380'>0.89293E+02</wgt>
<wgt id='2381'>0.89373E+02</wgt>
<wgt id='2382'>0.89273E+02</wgt>
<wgt id='2383'>0.89414E+02</wgt>
<wgt id='2384'>0.89383E+02</wgt>
<wgt id='2385'>0.89668E+02</wgt>
<wgt id='2386'>0.89266E+02</wgt>
<wgt id='2387'>0.89287E+02</wgt>
<wgt id='2388'>0.89366E+02</wgt>
<wgt id='2389'>0.89448E+02</wgt>
<wgt id='2390'>0.89496E+02</wgt>
<wgt id='2391'>0.89447E+02</wgt>
<wgt id='2392'>0.89473E+02</wgt>
<wgt id='2393'>0.89556E+02</wgt>
<wgt id='2394'>0.89616E+02</wgt>
<wgt id='2395'>0.89474E+02</wgt>
<wgt id='2396'>0.89449E+02</wgt>
<wgt id='2397'>0.89468E+02</wgt>
<wgt id='2398'>0.89434E+02</wgt>
<wgt id='2399'>0.89523E+02</wgt>
<wgt id='2400'>0.89556E+02</wgt>
<wgt id='2401'>0.86321E+02</wgt>
<wgt id='2402'>0.92709E+02</wgt>
<wgt id='2500'>0.87576E+02</wgt>
<wgt id='2501'>0.96096E+02</wgt>
<wgt id='2600'>0.80519E+02</wgt>
<wgt id='2601'>0.80516E+02</wgt>
<wgt id='2602'>0.80177E+02</wgt>
<wgt id='2603'>0.80461E+02</wgt>
<wgt id='2604'>0.80202E+02</wgt>
<wgt id='2605'>0.80345E+02</wgt>
<wgt id='2606'>0.80819E+02</wgt>
<wgt id='2607'>0.80422E+02</wgt>
<wgt id='2608'>0.80721E+02</wgt>
<wgt id='2609'>0.80237E+02</wgt>
<wgt id='2610'>0.80389E+02</wgt>
<wgt id='2611'>0.80487E+02</wgt>
<wgt id='2612'>0.80514E+02</wgt>
<wgt id='2613'>0.80562E+02</wgt>
<wgt id='2614'>0.80360E+02</wgt>
<wgt id='2615'>0.80169E+02</wgt>
<wgt id='2616'>0.80632E+02</wgt>
<wgt id='2617'>0.80105E+02</wgt>
<wgt id='2618'>0.80581E+02</wgt>
<wgt id='2619'>0.80691E+02</wgt>
<wgt id='2620'>0.80186E+02</wgt>
<wgt id='2621'>0.80686E+02</wgt>
<wgt id='2622'>0.80907E+02</wgt>
<wgt id='2623'>0.80465E+02</wgt>
<wgt id='2624'>0.80338E+02</wgt>
<wgt id='2625'>0.80749E+02</wgt>
<wgt id='2626'>0.80729E+02</wgt>
<wgt id='2627'>0.80584E+02</wgt>
<wgt id='2628'>0.80443E+02</wgt>
<wgt id='2629'>0.80740E+02</wgt>
<wgt id='2630'>0.80836E+02</wgt>
<wgt id='2631'>0.80793E+02</wgt>
<wgt id='2632'>0.79969E+02</wgt>
<wgt id='2633'>0.80546E+02</wgt>
<wgt id='2634'>0.80893E+02</wgt>
<wgt id='2635'>0.80199E+02</wgt>
<wgt id='2636'>0.80462E+02</wgt>
<wgt id='2637'>0.80383E+02</wgt>
<wgt id='2638'>0.80697E+02</wgt>
<wgt id='2639'>0.80449E+02</wgt>
<wgt id='2640'>0.80700E+02</wgt>
<wgt id='2641'>0.80494E+02</wgt>
<wgt id='2642'>0.80572E+02</wgt>
<wgt id='2643'>0.80655E+02</wgt>
<wgt id='2644'>0.80460E+02</wgt>
<wgt id='2645'>0.80382E+02</wgt>
<wgt id='2646'>0.80379E+02</wgt>
<wgt id='2647'>0.80602E+02</wgt>
<wgt id='2648'>0.80530E+02</wgt>
<wgt id='2649'>0.80582E+02</wgt>
<wgt id='2650'>0.80513E+02</wgt>
<wgt id='2651'>0.78273E+02</wgt>
<wgt id='2652'>0.82465E+02</wgt>
<wgt id='2700'>0.76032E+02</wgt>
<wgt id='2701'>0.78273E+02</wgt>
<wgt id='2702'>0.79264E+02</wgt>
<wgt id='2703'>0.81588E+02</wgt>
<wgt id='2704'>0.82465E+02</wgt>
<wgt id='2705'>0.84727E+02</wgt>
<wgt id='2800'>0.85325E+02</wgt>
<wgt id='4000'>0.92450E+02</wgt>
<wgt id='4001'>0.92684E+02</wgt>
<wgt id='4002'>0.93012E+02</wgt>
<wgt id='4003'>0.88437E+02</wgt>
<wgt id='4004'>0.98393E+02</wgt>
<wgt id='4005'>0.93875E+02</wgt>
<wgt id='4006'>0.91673E+02</wgt>
<wgt id='4007'>0.91551E+02</wgt>
<wgt id='4008'>0.93573E+02</wgt>
<wgt id='4009'>0.91850E+02</wgt>
<wgt id='4010'>0.92113E+02</wgt>
<wgt id='4011'>0.93091E+02</wgt>
<wgt id='4012'>0.91406E+02</wgt>
<wgt id='4013'>0.93102E+02</wgt>
<wgt id='4014'>0.92353E+02</wgt>
<wgt id='4015'>0.93966E+02</wgt>
<wgt id='4016'>0.94986E+02</wgt>
<wgt id='4017'>0.92940E+02</wgt>
<wgt id='4018'>0.92024E+02</wgt>
<wgt id='4019'>0.91219E+02</wgt>
<wgt id='4020'>0.95126E+02</wgt>
<wgt id='4021'>0.93557E+02</wgt>
<wgt id='4022'>0.90635E+02</wgt>
<wgt id='4023'>0.94888E+02</wgt>
<wgt id='4024'>0.92105E+02</wgt>
<wgt id='4025'>0.91956E+02</wgt>
<wgt id='4026'>0.93963E+02</wgt>
<wgt id='4027'>0.95856E+02</wgt>
<wgt id='4028'>0.90018E+02</wgt>
<wgt id='4029'>0.96272E+02</wgt>
<wgt id='4030'>0.90861E+02</wgt>
<wgt id='4031'>0.92192E+02</wgt>
<wgt id='4032'>0.98036E+02</wgt>
<wgt id='4033'>0.95069E+02</wgt>
<wgt id='4034'>0.90746E+02</wgt>
<wgt id='4035'>0.92776E+02</wgt>
<wgt id='4036'>0.92498E+02</wgt>
<wgt id='4037'>0.98140E+02</wgt>
<wgt id='4038'>0.88213E+02</wgt>
<wgt id='4039'>0.95427E+02</wgt>
<wgt id='4040'>0.90207E+02</wgt>
<wgt id='4041'>0.93312E+02</wgt>
<wgt id='4042'>0.91652E+02</wgt>
<wgt id='4043'>0.91894E+02</wgt>
<wgt id='4044'>0.92055E+02</wgt>
<wgt id='4045'>0.90024E+02</wgt>
<wgt id='4046'>0.94075E+02</wgt>
<wgt id='4047'>0.94973E+02</wgt>
<wgt id='4048'>0.92801E+02</wgt>
<wgt id='4049'>0.92737E+02</wgt>
<wgt id='4050'>0.92873E+02</wgt>
<wgt id='4051'>0.90575E+02</wgt>
<wgt id='4052'>0.94840E+02</wgt>
<wgt id='4053'>0.92700E+02</wgt>
<wgt id='4054'>0.91451E+02</wgt>
<wgt id='4055'>0.93722E+02</wgt>
<wgt id='4056'>0.91449E+02</wgt>
<wgt id='4057'>0.91414E+02</wgt>
<wgt id='4058'>0.93033E+02</wgt>
<wgt id='4100'>0.90644E+02</wgt>
<wgt id='4101'>0.91433E+02</wgt>
<wgt id='4102'>0.93634E+02</wgt>
<wgt id='4103'>0.94921E+02</wgt>
<wgt id='4200'>0.89301E+02</wgt>
<wgt id='4201'>0.89280E+02</wgt>
<wgt id='4202'>0.89923E+02</wgt>
<wgt id='4203'>0.88784E+02</wgt>
<wgt id='4204'>0.89324E+02</wgt>
<wgt id='4205'>0.89254E+02</wgt>
<wgt id='4206'>0.89906E+02</wgt>
<wgt id='4207'>0.90947E+02</wgt>
<wgt id='4208'>0.88847E+02</wgt>
<wgt id='4209'>0.88935E+02</wgt>
<wgt id='4210'>0.89729E+02</wgt>
<wgt id='4211'>0.89298E+02</wgt>
<wgt id='4212'>0.89400E+02</wgt>
<wgt id='4213'>0.89136E+02</wgt>
<wgt id='4214'>0.89686E+02</wgt>
<wgt id='4215'>0.89566E+02</wgt>
<wgt id='4216'>0.89899E+02</wgt>
<wgt id='4217'>0.89770E+02</wgt>
<wgt id='4218'>0.88815E+02</wgt>
<wgt id='4219'>0.90214E+02</wgt>
<wgt id='4220'>0.88923E+02</wgt>
<wgt id='4221'>0.89566E+02</wgt>
<wgt id='4222'>0.89908E+02</wgt>
<wgt id='4223'>0.86752E+02</wgt>
<wgt id='4224'>0.88918E+02</wgt>
<wgt id='4225'>0.89556E+02</wgt>
<wgt id='4226'>0.90602E+02</wgt>
<wgt id='4227'>0.91210E+02</wgt>
<wgt id='4228'>0.87790E+02</wgt>
<wgt id='4229'>0.86763E+02</wgt>
<wgt id='4230'>0.91956E+02</wgt>
<wgt id='4231'>0.91407E+02</wgt>
<wgt id='4232'>0.86374E+02</wgt>
<wgt id='4233'>0.90775E+02</wgt>
<wgt id='4234'>0.86589E+02</wgt>
<wgt id='4235'>0.91981E+02</wgt>
<wgt id='4236'>0.86877E+02</wgt>
<wgt id='4237'>0.92508E+02</wgt>
<wgt id='4238'>0.84671E+02</wgt>
<wgt id='4239'>0.88855E+02</wgt>
<wgt id='4240'>0.90720E+02</wgt>
<wgt id='4241'>0.90384E+02</wgt>
<wgt id='4242'>0.88211E+02</wgt>
<wgt id='4243'>0.90475E+02</wgt>
<wgt id='4244'>0.88552E+02</wgt>
<wgt id='4245'>0.90544E+02</wgt>
<wgt id='4246'>0.87013E+02</wgt>
<wgt id='4247'>0.87165E+02</wgt>
<wgt id='4248'>0.90691E+02</wgt>
<wgt id='4249'>0.90592E+02</wgt>
<wgt id='4250'>0.88076E+02</wgt>
<wgt id='4251'>0.95498E+02</wgt>
<wgt id='4252'>0.85742E+02</wgt>
<wgt id='4253'>0.93321E+02</wgt>
<wgt id='4254'>0.85050E+02</wgt>
<wgt id='4255'>0.92978E+02</wgt>
<wgt id='4256'>0.88092E+02</wgt>
<wgt id='4257'>0.87666E+02</wgt>
<wgt id='4258'>0.89746E+02</wgt>
<wgt id='4300'>0.90946E+02</wgt>
<wgt id='4301'>0.92777E+02</wgt>
<wgt id='5000'>0.88178E+02</wgt>
<wgt id='5001'>0.88258E+02</wgt>
<wgt id='5002'>0.88076E+02</wgt>
<wgt id='5003'>0.88201E+02</wgt>
<wgt id='5004'>0.88157E+02</wgt>
<wgt id='5005'>0.88219E+02</wgt>
<wgt id='5006'>0.88111E+02</wgt>
<wgt id='5007'>0.88323E+02</wgt>
<wgt id='5008'>0.88060E+02</wgt>
<wgt id='5009'>0.88336E+02</wgt>
<wgt id='5010'>0.88015E+02</wgt>
<wgt id='5011'>0.88604E+02</wgt>
<wgt id='5012'>0.87768E+02</wgt>
<wgt id='5013'>0.88446E+02</wgt>
<wgt id='5014'>0.87988E+02</wgt>
<wgt id='5015'>0.87688E+02</wgt>
<wgt id='5016'>0.87688E+02</wgt>
<wgt id='5017'>0.88332E+02</wgt>
<wgt id='5018'>0.88076E+02</wgt>
<wgt id='5019'>0.88399E+02</wgt>
<wgt id='5020'>0.87872E+02</wgt>
<wgt id='5021'>0.88212E+02</wgt>
<wgt id='5022'>0.88127E+02</wgt>
<wgt id='5023'>0.88241E+02</wgt>
<wgt id='5024'>0.88024E+02</wgt>
<wgt id='5025'>0.88283E+02</wgt>
<wgt id='5026'>0.88048E+02</wgt>
<wgt id='5027'>0.88314E+02</wgt>
<wgt id='5028'>0.87814E+02</wgt>
<wgt id='5029'>0.90333E+02</wgt>
<wgt id='5030'>0.86984E+02</wgt>
<wgt id='5031'>0.86835E+02</wgt>
<wgt id='5032'>0.92401E+02</wgt>
<wgt id='5033'>0.87897E+02</wgt>
<wgt id='5034'>0.88479E+02</wgt>
<wgt id='5035'>0.88223E+02</wgt>
<wgt id='5036'>0.88117E+02</wgt>
<wgt id='5037'>0.87457E+02</wgt>
<wgt id='5038'>0.88583E+02</wgt>
<wgt id='5039'>0.88325E+02</wgt>
<wgt id='5040'>0.87801E+02</wgt>
<wgt id='5041'>0.86636E+02</wgt>
<wgt id='5042'>0.89871E+02</wgt>
<wgt id='5043'>0.88627E+02</wgt>
<wgt id='5044'>0.87776E+02</wgt>
<wgt id='5045'>0.89366E+02</wgt>
<wgt id='5046'>0.86286E+02</wgt>
<wgt id='5047'>0.88447E+02</wgt>
<wgt id='5048'>0.87001E+02</wgt>
<wgt id='5049'>0.87947E+02</wgt>
<wgt id='5050'>0.88754E+02</wgt>
<wgt id='5051'>0.88681E+02</wgt>
<wgt id='5052'>0.87895E+02</wgt>
<wgt id='5053'>0.89419E+02</wgt>
<wgt id='5054'>0.88187E+02</wgt>
<wgt id='5055'>0.88089E+02</wgt>
<wgt id='5056'>0.88423E+02</wgt>
<wgt id='5057'>0.87472E+02</wgt>
<wgt id='5058'>0.88677E+02</wgt>
<wgt id='5059'>0.87730E+02</wgt>
<wgt id='5060'>0.88416E+02</wgt>
<wgt id='5061'>0.88577E+02</wgt>
<wgt id='5062'>0.88854E+02</wgt>
<wgt id='5063'>0.88470E+02</wgt>
<wgt id='5064'>0.88610E+02</wgt>
<wgt id='5100'>0.88178E+02</wgt>
<wgt id='5101'>0.88103E+02</wgt>
<wgt id='6000'>0.88674E+02</wgt>
<wgt id='6001'>0.88278E+02</wgt>
<wgt id='6002'>0.86461E+02</wgt>
<wgt id='6003'>0.88040E+02</wgt>
<wgt id='6004'>0.90068E+02</wgt>
<wgt id='6005'>0.87397E+02</wgt>
<wgt id='6006'>0.89148E+02</wgt>
<wgt id='6007'>0.87173E+02</wgt>
<wgt id='6008'>0.90690E+02</wgt>
<wgt id='6009'>0.88773E+02</wgt>
<wgt id='6010'>0.89420E+02</wgt>
<wgt id='6011'>0.88659E+02</wgt>
<wgt id='6012'>0.89113E+02</wgt>
<wgt id='6013'>0.88132E+02</wgt>
<wgt id='6014'>0.87847E+02</wgt>
<wgt id='6015'>0.87333E+02</wgt>
<wgt id='6016'>0.89571E+02</wgt>
<wgt id='6017'>0.88088E+02</wgt>
<wgt id='6018'>0.87297E+02</wgt>
<wgt id='6019'>0.89481E+02</wgt>
<wgt id='6020'>0.88788E+02</wgt>
<wgt id='6021'>0.88646E+02</wgt>
<wgt id='6022'>0.90445E+02</wgt>
<wgt id='6023'>0.88708E+02</wgt>
<wgt id='6024'>0.89013E+02</wgt>
<wgt id='6025'>0.89363E+02</wgt>
<wgt id='6026'>0.88500E+02</wgt>
<wgt id='6027'>0.88822E+02</wgt>
<wgt id='6028'>0.87613E+02</wgt>
<wgt id='6029'>0.88232E+02</wgt>
<wgt id='6030'>0.87557E+02</wgt>
<wgt id='6031'>0.88076E+02</wgt>
<wgt id='6032'>0.88667E+02</wgt>
<wgt id='6033'>0.88597E+02</wgt>
<wgt id='6034'>0.89690E+02</wgt>
<wgt id='6035'>0.88793E+02</wgt>
<wgt id='6036'>0.89169E+02</wgt>
<wgt id='6037'>0.88604E+02</wgt>
<wgt id='6038'>0.88363E+02</wgt>
<wgt id='6039'>0.89455E+02</wgt>
<wgt id='6040'>0.88766E+02</wgt>
<wgt id='6041'>0.85916E+02</wgt>
<wgt id='6042'>0.90835E+02</wgt>
<wgt id='7000'>0.77550E+02</wgt>
<wgt id='7001'>0.76721E+02</wgt>
<wgt id='7002'>0.76914E+02</wgt>
<wgt id='7003'>0.76723E+02</wgt>
<wgt id='7004'>0.76913E+02</wgt>
<wgt id='7005'>0.76728E+02</wgt>
<wgt id='7006'>0.76907E+02</wgt>
<wgt id='7007'>0.77288E+02</wgt>
<wgt id='7008'>0.76361E+02</wgt>
<wgt id='7009'>0.76223E+02</wgt>
<wgt id='7010'>0.77433E+02</wgt>
<wgt id='7011'>0.77079E+02</wgt>
<wgt id='7012'>0.76571E+02</wgt>
<wgt id='7013'>0.77033E+02</wgt>
<wgt id='7014'>0.76597E+02</wgt>
<wgt id='7015'>0.77221E+02</wgt>
<wgt id='7016'>0.76208E+02</wgt>
<wgt id='7017'>0.76527E+02</wgt>
<wgt id='7018'>0.77149E+02</wgt>
<wgt id='7019'>0.77823E+02</wgt>
<wgt id='7020'>0.75871E+02</wgt>
<wgt id='7021'>0.79733E+02</wgt>
<wgt id='7022'>0.74237E+02</wgt>
<wgt id='7023'>0.74717E+02</wgt>
<wgt id='7024'>0.78981E+02</wgt>
<wgt id='7025'>0.74240E+02</wgt>
<wgt id='7026'>0.79522E+02</wgt>
<wgt id='7027'>0.75562E+02</wgt>
<wgt id='7028'>0.78154E+02</wgt>
<wgt id='8000'>0.80427E+02</wgt>
<wgt id='8001'>0.80427E+02</wgt>
<wgt id='8002'>0.80451E+02</wgt>
<wgt id='8003'>0.80419E+02</wgt>
<wgt id='8004'>0.80425E+02</wgt>
<wgt id='8005'>0.80310E+02</wgt>
<wgt id='8006'>0.80652E+02</wgt>
<wgt id='8007'>0.80817E+02</wgt>
<wgt id='8008'>0.80587E+02</wgt>
<wgt id='8009'>0.80744E+02</wgt>
<wgt id='8010'>0.80262E+02</wgt>
<wgt id='8011'>0.80546E+02</wgt>
<wgt id='8012'>0.80018E+02</wgt>
<wgt id='8013'>0.80136E+02</wgt>
<wgt id='8014'>0.80829E+02</wgt>
<wgt id='8015'>0.80379E+02</wgt>
<wgt id='8016'>0.80663E+02</wgt>
<wgt id='8017'>0.80666E+02</wgt>
<wgt id='8018'>0.81042E+02</wgt>
<wgt id='8019'>0.79855E+02</wgt>
<wgt id='8020'>0.81455E+02</wgt>
<wgt id='8021'>0.80075E+02</wgt>
<wgt id='8022'>0.82277E+02</wgt>
<wgt id='8023'>0.79674E+02</wgt>
<wgt id='8024'>0.79009E+02</wgt>
<wgt id='8025'>0.79120E+02</wgt>
<wgt id='8026'>0.80192E+02</wgt>
<wgt id='8027'>0.80905E+02</wgt>
<wgt id='8028'>0.80381E+02</wgt>
<wgt id='8029'>0.85234E+02</wgt>
<wgt id='3000'>0.81104E+02</wgt>
<wgt id='3001'>0.84891E+02</wgt>
<wgt id='3002'>0.78695E+02</wgt>
<wgt id='3003'>0.74751E+02</wgt>
<wgt id='3004'>0.82092E+02</wgt>
<wgt id='3005'>0.80366E+02</wgt>
<wgt id='3006'>0.84886E+02</wgt>
<wgt id='3007'>0.79898E+02</wgt>
<wgt id='3008'>0.78812E+02</wgt>
<wgt id='3009'>0.78253E+02</wgt>
<wgt id='3010'>0.84760E+02</wgt>
<wgt id='3011'>0.81113E+02</wgt>
<wgt id='3012'>0.84578E+02</wgt>
<wgt id='3013'>0.82152E+02</wgt>
<wgt id='3014'>0.83008E+02</wgt>
<wgt id='3015'>0.78350E+02</wgt>
<wgt id='3016'>0.78260E+02</wgt>
<wgt id='3017'>0.81207E+02</wgt>
<wgt id='3018'>0.79468E+02</wgt>
<wgt id='3019'>0.78155E+02</wgt>
<wgt id='3020'>0.79269E+02</wgt>
<wgt id='3021'>0.80891E+02</wgt>
<wgt id='3022'>0.78239E+02</wgt>
<wgt id='3023'>0.77851E+02</wgt>
<wgt id='3024'>0.83051E+02</wgt>
<wgt id='3025'>0.79026E+02</wgt>
<wgt id='3026'>0.79166E+02</wgt>
<wgt id='3027'>0.83107E+02</wgt>
<wgt id='3028'>0.79031E+02</wgt>
<wgt id='3029'>0.82186E+02</wgt>
<wgt id='3030'>0.82352E+02</wgt>
<wgt id='3031'>0.76944E+02</wgt>
<wgt id='3032'>0.84117E+02</wgt>
<wgt id='3033'>0.80871E+02</wgt>
<wgt id='3034'>0.83855E+02</wgt>
<wgt id='3035'>0.74894E+02</wgt>
<wgt id='3036'>0.82733E+02</wgt>
<wgt id='3037'>0.78604E+02</wgt>
<wgt id='3038'>0.82102E+02</wgt>
<wgt id='3039'>0.83173E+02</wgt>
<wgt id='3040'>0.80935E+02</wgt>
<wgt id='3041'>0.80029E+02</wgt>
<wgt id='3042'>0.84135E+02</wgt>
<wgt id='3043'>0.83164E+02</wgt>
<wgt id='3044'>0.83682E+02</wgt>
<wgt id='3045'>0.79568E+02</wgt>
<wgt id='3046'>0.83103E+02</wgt>
<wgt id='3047'>0.84241E+02</wgt>
<wgt id='3048'>0.84766E+02</wgt>
<wgt id='3049'>0.81460E+02</wgt>
<wgt id='3050'>0.80220E+02</wgt>
<wgt id='3051'>0.84042E+02</wgt>
<wgt id='3052'>0.80255E+02</wgt>
<wgt id='3053'>0.82068E+02</wgt>
<wgt id='3054'>0.81391E+02</wgt>
<wgt id='3055'>0.81039E+02</wgt>
<wgt id='3056'>0.82153E+02</wgt>
<wgt id='3057'>0.80158E+02</wgt>
<wgt id='3058'>0.84614E+02</wgt>
<wgt id='3059'>0.76447E+02</wgt>
<wgt id='3060'>0.81506E+02</wgt>
<wgt id='3061'>0.82178E+02</wgt>
<wgt id='3062'>0.79198E+02</wgt>
<wgt id='3063'>0.81965E+02</wgt>
<wgt id='3064'>0.82744E+02</wgt>
<wgt id='3065'>0.79723E+02</wgt>
<wgt id='3066'>0.79325E+02</wgt>
<wgt id='3067'>0.77353E+02</wgt>
<wgt id='3068'>0.80701E+02</wgt>
<wgt id='3069'>0.82311E+02</wgt>
<wgt id='3070'>0.85566E+02</wgt>
<wgt id='3071'>0.80114E+02</wgt>
<wgt id='3072'>0.78656E+02</wgt>
<wgt id='3073'>0.79786E+02</wgt>
<wgt id='3074'>0.77401E+02</wgt>
<wgt id='3075'>0.80655E+02</wgt>
<wgt id='3076'>0.79644E+02</wgt>
<wgt id='3077'>0.82922E+02</wgt>
<wgt id='3078'>0.79144E+02</wgt>
<wgt id='3079'>0.81050E+02</wgt>
<wgt id='3080'>0.87543E+02</wgt>
<wgt id='3081'>0.83580E+02</wgt>
<wgt id='3082'>0.78260E+02</wgt>
<wgt id='3083'>0.83524E+02</wgt>
<wgt id='3084'>0.78915E+02</wgt>
<wgt id='3085'>0.77910E+02</wgt>
<wgt id='3086'>0.88465E+02</wgt>
<wgt id='3087'>0.79473E+02</wgt>
<wgt id='3088'>0.84190E+02</wgt>
<wgt id='3089'>0.79525E+02</wgt>
<wgt id='3090'>0.82824E+02</wgt>
<wgt id='3091'>0.78012E+02</wgt>
<wgt id='3092'>0.83909E+02</wgt>
<wgt id='3093'>0.80512E+02</wgt>
<wgt id='3094'>0.81891E+02</wgt>
<wgt id='3095'>0.84264E+02</wgt>
<wgt id='3096'>0.77343E+02</wgt>
<wgt id='3097'>0.89344E+02</wgt>
<wgt id='3098'>0.80937E+02</wgt>
<wgt id='3099'>0.77985E+02</wgt>
<wgt id='3100'>0.78534E+02</wgt>
<wgt id='3200'>0.80793E+02</wgt>
<wgt id='3201'>0.82382E+02</wgt>
<wgt id='3202'>0.80335E+02</wgt>
<wgt id='3203'>0.83045E+02</wgt>
<wgt id='3204'>0.81672E+02</wgt>
<wgt id='3205'>0.81919E+02</wgt>
<wgt id='3206'>0.80581E+02</wgt>
<wgt id='3207'>0.80490E+02</wgt>
<wgt id='3208'>0.81146E+02</wgt>
<wgt id='3209'>0.80961E+02</wgt>
<wgt id='3210'>0.80165E+02</wgt>
<wgt id='3211'>0.78147E+02</wgt>
<wgt id='3212'>0.81150E+02</wgt>
<wgt id='3213'>0.81176E+02</wgt>
<wgt id='3214'>0.81346E+02</wgt>
<wgt id='3215'>0.79826E+02</wgt>
<wgt id='3216'>0.84313E+02</wgt>
<wgt id='3217'>0.79774E+02</wgt>
<wgt id='3218'>0.81096E+02</wgt>
<wgt id='3219'>0.78424E+02</wgt>
<wgt id='3220'>0.82130E+02</wgt>
<wgt id='3221'>0.79891E+02</wgt>
<wgt id='3222'>0.83442E+02</wgt>
<wgt id='3223'>0.79974E+02</wgt>
<wgt id='3224'>0.80176E+02</wgt>
<wgt id='3225'>0.81531E+02</wgt>
<wgt id='3226'>0.82642E+02</wgt>
<wgt id='3227'>0.82099E+02</wgt>
<wgt id='3228'>0.80303E+02</wgt>
<wgt id='3229'>0.81792E+02</wgt>
<wgt id='3230'>0.81804E+02</wgt>
<wgt id='3231'>0.80242E+02</wgt>
<wgt id='3232'>0.81383E+02</wgt>
<wgt id='3233'>0.81630E+02</wgt>
<wgt id='3234'>0.77838E+02</wgt>
<wgt id='3235'>0.80481E+02</wgt>
<wgt id='3236'>0.81589E+02</wgt>
<wgt id='3237'>0.80975E+02</wgt>
<wgt id='3238'>0.82594E+02</wgt>
<wgt id='3239'>0.78933E+02</wgt>
<wgt id='3240'>0.76892E+02</wgt>
<wgt id='3241'>0.81559E+02</wgt>
<wgt id='3242'>0.83221E+02</wgt>
<wgt id='3243'>0.82155E+02</wgt>
<wgt id='3244'>0.81255E+02</wgt>
<wgt id='3245'>0.82513E+02</wgt>
<wgt id='3246'>0.78695E+02</wgt>
<wgt id='3247'>0.80078E+02</wgt>
<wgt id='3248'>0.79728E+02</wgt>
<wgt id='3249'>0.80180E+02</wgt>
<wgt id='3250'>0.78894E+02</wgt>
<wgt id='3251'>0.79950E+02</wgt>
<wgt id='3252'>0.83281E+02</wgt>
<wgt id='3253'>0.82533E+02</wgt>
<wgt id='3254'>0.79806E+02</wgt>
<wgt id='3255'>0.78903E+02</wgt>
<wgt id='3256'>0.80886E+02</wgt>
<wgt id='3257'>0.79120E+02</wgt>
<wgt id='3258'>0.79011E+02</wgt>
<wgt id='3259'>0.80244E+02</wgt>
<wgt id='3260'>0.83279E+02</wgt>
<wgt id='3261'>0.81758E+02</wgt>
<wgt id='3262'>0.81905E+02</wgt>
<wgt id='3263'>0.82511E+02</wgt>
<wgt id='3264'>0.83064E+02</wgt>
<wgt id='3265'>0.80767E+02</wgt>
<wgt id='3266'>0.80975E+02</wgt>
<wgt id='3267'>0.80143E+02</wgt>
<wgt id='3268'>0.76771E+02</wgt>
<wgt id='3269'>0.79524E+02</wgt>
<wgt id='3270'>0.81022E+02</wgt>
<wgt id='3271'>0.78997E+02</wgt>
<wgt id='3272'>0.81319E+02</wgt>
<wgt id='3273'>0.79767E+02</wgt>
<wgt id='3274'>0.82117E+02</wgt>
<wgt id='3275'>0.82673E+02</wgt>
<wgt id='3276'>0.77848E+02</wgt>
<wgt id='3277'>0.80266E+02</wgt>
<wgt id='3278'>0.81770E+02</wgt>
<wgt id='3279'>0.82187E+02</wgt>
<wgt id='3280'>0.80265E+02</wgt>
<wgt id='3281'>0.82237E+02</wgt>
<wgt id='3282'>0.79448E+02</wgt>
<wgt id='3283'>0.81985E+02</wgt>
<wgt id='3284'>0.80129E+02</wgt>
<wgt id='3285'>0.80991E+02</wgt>
<wgt id='3286'>0.78517E+02</wgt>
<wgt id='3287'>0.81969E+02</wgt>
<wgt id='3288'>0.78614E+02</wgt>
<wgt id='3289'>0.79988E+02</wgt>
<wgt id='3290'>0.80283E+02</wgt>
<wgt id='3291'>0.80011E+02</wgt>
<wgt id='3292'>0.81265E+02</wgt>
<wgt id='3293'>0.82059E+02</wgt>
<wgt id='3294'>0.80624E+02</wgt>
<wgt id='3295'>0.79966E+02</wgt>
<wgt id='3296'>0.82226E+02</wgt>
<wgt id='3297'>0.80008E+02</wgt>
<wgt id='3298'>0.78337E+02</wgt>
<wgt id='3299'>0.81624E+02</wgt>
<wgt id='3300'>0.81990E+02</wgt>
<wgt id='3301'>0.78273E+02</wgt>
<wgt id='3302'>0.82465E+02</wgt>
<wgt id='3400'>0.81598E+02</wgt>
<wgt id='3401'>0.84472E+02</wgt>
<wgt id='3402'>0.78456E+02</wgt>
<wgt id='3403'>0.81739E+02</wgt>
<wgt id='3404'>0.82233E+02</wgt>
<wgt id='3405'>0.84774E+02</wgt>
<wgt id='3406'>0.80418E+02</wgt>
<wgt id='3407'>0.79899E+02</wgt>
<wgt id='3408'>0.80845E+02</wgt>
<wgt id='3409'>0.80275E+02</wgt>
<wgt id='3410'>0.84430E+02</wgt>
<wgt id='3411'>0.81130E+02</wgt>
<wgt id='3412'>0.80410E+02</wgt>
<wgt id='3413'>0.81580E+02</wgt>
<wgt id='3414'>0.83008E+02</wgt>
<wgt id='3415'>0.81590E+02</wgt>
<wgt id='3416'>0.81775E+02</wgt>
<wgt id='3417'>0.80144E+02</wgt>
<wgt id='3418'>0.81062E+02</wgt>
<wgt id='3419'>0.80772E+02</wgt>
<wgt id='3420'>0.80179E+02</wgt>
<wgt id='3421'>0.81182E+02</wgt>
<wgt id='3422'>0.78421E+02</wgt>
<wgt id='3423'>0.86614E+02</wgt>
<wgt id='3424'>0.82574E+02</wgt>
<wgt id='3425'>0.82594E+02</wgt>
<wgt id='3426'>0.80274E+02</wgt>
<wgt id='3427'>0.82600E+02</wgt>
<wgt id='3428'>0.79069E+02</wgt>
<wgt id='3429'>0.79513E+02</wgt>
<wgt id='3430'>0.81217E+02</wgt>
<wgt id='3431'>0.81441E+02</wgt>
<wgt id='3432'>0.80078E+02</wgt>
<wgt id='3433'>0.83030E+02</wgt>
<wgt id='3434'>0.85785E+02</wgt>
<wgt id='3435'>0.84406E+02</wgt>
<wgt id='3436'>0.81548E+02</wgt>
<wgt id='3437'>0.81852E+02</wgt>
<wgt id='3438'>0.80150E+02</wgt>
<wgt id='3439'>0.80190E+02</wgt>
<wgt id='3440'>0.81822E+02</wgt>
<wgt id='3441'>0.83423E+02</wgt>
<wgt id='3442'>0.83930E+02</wgt>
<wgt id='3443'>0.83629E+02</wgt>
<wgt id='3444'>0.82995E+02</wgt>
<wgt id='3445'>0.80660E+02</wgt>
<wgt id='3446'>0.82040E+02</wgt>
<wgt id='3447'>0.79421E+02</wgt>
<wgt id='3448'>0.80920E+02</wgt>
<wgt id='3449'>0.82155E+02</wgt>
<wgt id='3450'>0.81984E+02</wgt>
<wgt id='3451'>0.80272E+02</wgt>
<wgt id='3452'>0.80602E+02</wgt>
<wgt id='3453'>0.79164E+02</wgt>
<wgt id='3454'>0.81827E+02</wgt>
<wgt id='3455'>0.81445E+02</wgt>
<wgt id='3456'>0.81178E+02</wgt>
<wgt id='3457'>0.82565E+02</wgt>
<wgt id='3458'>0.80148E+02</wgt>
<wgt id='3459'>0.83931E+02</wgt>
<wgt id='3460'>0.82536E+02</wgt>
<wgt id='3461'>0.81572E+02</wgt>
<wgt id='3462'>0.81548E+02</wgt>
<wgt id='3463'>0.81233E+02</wgt>
<wgt id='3464'>0.81148E+02</wgt>
<wgt id='3465'>0.79947E+02</wgt>
<wgt id='3466'>0.83602E+02</wgt>
<wgt id='3467'>0.80825E+02</wgt>
<wgt id='3468'>0.83107E+02</wgt>
<wgt id='3469'>0.79147E+02</wgt>
<wgt id='3470'>0.81324E+02</wgt>
<wgt id='3471'>0.80224E+02</wgt>
<wgt id='3472'>0.79784E+02</wgt>
<wgt id='3473'>0.83712E+02</wgt>
<wgt id='3474'>0.82765E+02</wgt>
<wgt id='3475'>0.81863E+02</wgt>
<wgt id='3476'>0.81169E+02</wgt>
<wgt id='3477'>0.82590E+02</wgt>
<wgt id='3478'>0.82982E+02</wgt>
<wgt id='3479'>0.78298E+02</wgt>
<wgt id='3480'>0.80959E+02</wgt>
<wgt id='3481'>0.82302E+02</wgt>
<wgt id='3482'>0.83435E+02</wgt>
<wgt id='3483'>0.83055E+02</wgt>
<wgt id='3484'>0.81893E+02</wgt>
<wgt id='3485'>0.79451E+02</wgt>
<wgt id='3486'>0.80463E+02</wgt>
<wgt id='3487'>0.81987E+02</wgt>
<wgt id='3488'>0.80340E+02</wgt>
<wgt id='3489'>0.81055E+02</wgt>
<wgt id='3490'>0.85237E+02</wgt>
<wgt id='3491'>0.81537E+02</wgt>
<wgt id='3492'>0.81886E+02</wgt>
<wgt id='3493'>0.82062E+02</wgt>
<wgt id='3494'>0.77891E+02</wgt>
<wgt id='3495'>0.82278E+02</wgt>
<wgt id='3496'>0.80155E+02</wgt>
<wgt id='3497'>0.82000E+02</wgt>
<wgt id='3498'>0.80429E+02</wgt>
<wgt id='3499'>0.84374E+02</wgt>
<wgt id='3500'>0.82191E+02</wgt>
</rwgt>
</event>
<event>
     13 322200  8.11039E+01  4.76997E+01 -1.00000E+00  1.38209E-01
      21    -1     0     0   502   503  0.000000000E+00  0.000000000E+00  2.301061857E+02  2.301061857E+02  0.000000000E+00  0.00000E+00  9.000E+00
       1    -1     0     0   503     0  0.000000000E+00  0.000000000E+00 -5.633791260E+02  5.633791260E+02  0.000000000E+00  0.00000E+00  9.000E+00
       6     2     1     2   502     0  2.267247082E+01  2.523533985E+01 -3.954611982E-01  1.759845880E+02  1.726833967E+02  0.00000E+00  9.000E+00
      -6     2     1     2     0   512 -6.761690126E+01 -4.121211520E+01 -4.514867998E+02  4.896591255E+02  1.722069831E+02  0.00000E+00  9.000E+00
       1     1     1     2   512     0  4.494443044E+01  1.597677535E+01  1.186093206E+02  1.278415982E+02  2.100000000E-01  0.00000E+00  9.000E+00
      24     2     3     3     0     0  2.977651643E+01  7.767818238E+01  2.221907897E+01  1.182114089E+02  8.099202906E+01  0.00000E+00  9.000E+00
       5     1     3     3   502     0 -7.104045608E+00 -5.244284253E+01 -2.261454016E+01  5.777317910E+01  5.060000000E+00  0.00000E+00 -1.000E+00
     -24     2     4     4     0     0 -9.948106064E+01 -2.044512573E+01 -2.206726563E+02  2.556775772E+02  7.975034585E+01  0.00000E+00  9.000E+00
      -5     1     4     4     0   512  3.186415938E+01 -2.076698946E+01 -2.308141435E+02  2.339815483E+02  5.060000000E+00  0.00000E+00  1.000E+00
     -13     1     6     6     0     0  2.493017773E+01  3.561172120E+01 -2.862072824E+01  5.204676461E+01  1.057000000E-01  0.00000E+00  1.000E+00
      14     1     6     6     0     0  4.846338702E+00  4.206646118E+01  5.083980721E+01  6.616464427E+01  0.000000000E+00  0.00000E+00 -1.000E+00
      11     1     8     8     0     0 -8.732540701E+00 -1.319277199E+01  1.187446070E+00  1.586557683E+01  5.100000000E-04  0.00000E+00 -1.000E+00
     -12     1     8     8     0     0 -9.074851994E+01 -7.252353742E+00 -2.218601024E+02  2.398120004E+02  0.000000000E+00  0.00000E+00  1.000E+00
#rwgt            1           6   7.2373176863258877               10       30919           0
<rwgt>
<wgt id='1001'>0.81104E+02</wgt>
<wgt id='1002'>0.74803E+02</wgt>
<wgt id='1003'>0.86992E+02</wgt>
<wgt id='1004'>0.78433E+02</wgt>
<wgt id='1005'>0.73633E+02</wgt>
<wgt id='1006'>0.82827E+02</wgt>
<wgt id='1007'>0.80196E+02</wgt>
<wgt id='1008'>0.71695E+02</wgt>
<wgt id='1009'>0.88303E+02</wgt>
<wgt id='2000'>0.81104E+02</wgt>
<wgt id='2001'>0.81098E+02</wgt>
<wgt id='2002'>0.80973E+02</wgt>
<wgt id='2003'>0.80823E+02</wgt>
<wgt id='2004'>0.81045E+02</wgt>
<wgt id='2005'>0.81161E+02</wgt>
<wgt id='2006'>0.81030E+02</wgt>
<wgt id='2007'>0.80581E+02</wgt>
<wgt id='2008'>0.80532E+02</wgt>
<wgt id='2009'>0.81400E+02</wgt>
<wgt id='2010'>0.80738E+02</wgt>
<wgt id='2011'>0.81114E+02</wgt>
<wgt id='2012'>0.81190E+02</wgt>
<wgt id='2013'>0.81529E+02</wgt>
<wgt id='2014'>0.81304E+02</wgt>
<wgt id='2015'>0.82293E+02</wgt>
<wgt id='2016'>0.80647E+02</wgt>
<wgt id='2017'>0.81016E+02</wgt>
<wgt id='2018'>0.80532E+02</wgt>
<wgt id='2019'>0.81397E+02</wgt>
<wgt id='2020'>0.81534E+02</wgt>
<wgt id='2021'>0.80800E+02</wgt>
<wgt id='2022'>0.81503E+02</wgt>
<wgt id='2023'>0.80717E+02</wgt>
<wgt id='2024'>0.80741E+02</wgt>
<wgt id='2025'>0.80576E+02</wgt>
<wgt id='2026'>0.81019E+02</wgt>
<wgt id='2027'>0.81902E+02</wgt>
<wgt id='2028'>0.81473E+02</wgt>
<wgt id='2029'>0.81876E+02</wgt>
<wgt id='2030'>0.80938E+02</wgt>
<wgt id='2031'>0.82489E+02</wgt>
<wgt id='2032'>0.81053E+02</wgt>
<wgt id='2033'>0.81485E+02</wgt>
<wgt id='2034'>0.81502E+02</wgt>
<wgt id='2035'>0.80860E+02</wgt>
<wgt id='2036'>0.80374E+02</wgt>
<wgt id='2037'>0.81384E+02</wgt>
<wgt id='2038'>0.80901E+02</wgt>
<wgt id='2039'>0.81043E+02</wgt>
<wgt id='2040'>0.81228E+02</wgt>
<wgt id='2041'>0.81185E+02</wgt>
<wgt id='2042'>0.80828E+02</wgt>
<wgt id='2043'>0.81155E+02</wgt>
<wgt id='2044'>0.80969E+02</wgt>
<wgt id='2045'>0.81168E+02</wgt>
<wgt id='2046'>0.81176E+02</wgt>
<wgt id='2047'>0.81068E+02</wgt>
<wgt id='2048'>0.80870E+02</wgt>
<wgt id='2049'>0.80967E+02</wgt>
<wgt id='2050'>0.80909E+02</wgt>
<wgt id='2051'>0.81105E+02</wgt>
<wgt id='2052'>0.81144E+02</wgt>
<wgt id='2053'>0.81196E+02</wgt>
<wgt id='2054'>0.81257E+02</wgt>
<wgt id='2055'>0.81292E+02</wgt>
<wgt id='2056'>0.80959E+02</wgt>
<wgt id='2057'>0.81256E+02</wgt>
<wgt id='2058'>0.81286E+02</wgt>
<wgt id='2059'>0.81275E+02</wgt>
<wgt id='2060'>0.81336E+02</wgt>
<wgt id='2061'>0.81238E+02</wgt>
<wgt id='2062'>0.81183E+02</wgt>
<wgt id='2063'>0.80882E+02</wgt>
<wgt id='2064'>0.81180E+02</wgt>
<wgt id='2065'>0.81318E+02</wgt>
<wgt id='2066'>0.81240E+02</wgt>
<wgt id='2067'>0.81205E+02</wgt>
<wgt id='2068'>0.80972E+02</wgt>
<wgt id='2069'>0.81030E+02</wgt>
<wgt id='2070'>0.81365E+02</wgt>
<wgt id='2071'>0.81242E+02</wgt>
<wgt id='2072'>0.80956E+02</wgt>
<wgt id='2073'>0.81049E+02</wgt>
<wgt id='2074'>0.80951E+02</wgt>
<wgt id='2075'>0.81171E+02</wgt>
<wgt id='2076'>0.81056E+02</wgt>
<wgt id='2077'>0.81144E+02</wgt>
<wgt id='2078'>0.81037E+02</wgt>
<wgt id='2079'>0.81071E+02</wgt>
<wgt id='2080'>0.81037E+02</wgt>
<wgt id='2081'>0.81097E+02</wgt>
<wgt id='2082'>0.81230E+02</wgt>
<wgt id='2083'>0.81065E+02</wgt>
<wgt id='2084'>0.81086E+02</wgt>
<wgt id='2085'>0.81100E+02</wgt>
<wgt id='2086'>0.81055E+02</wgt>
<wgt id='2087'>0.81139E+02</wgt>
<wgt id='2088'>0.81178E+02</wgt>
<wgt id='2089'>0.81167E+02</wgt>
<wgt id='2090'>0.81088E+02</wgt>
<wgt id='2091'>0.81080E+02</wgt>
<wgt id='2092'>0.81079E+02</wgt>
<wgt id='2093'>0.81090E+02</wgt>
<wgt id='2094'>0.81074E+02</wgt>
<wgt id='2095'>0.81094E+02</wgt>
<wgt id='2096'>0.81054E+02</wgt>
<wgt id='2097'>0.81085E+02</wgt>
<wgt id='2098'>0.81142E+02</wgt>
<wgt id='2099'>0.81172E+02</wgt>
<wgt id='2100'>0.81104E+02</wgt>
<wgt id='2101'>0.78867E+02</wgt>
<wgt id='2102'>0.83778E+02</wgt>
<wgt id='2200'>0.81148E+02</wgt>
<wgt id='2201'>0.69614E+02</wgt>
<wgt id='2202'>0.71718E+02</wgt>
<wgt id='2203'>0.74209E+02</wgt>
<wgt id='2204'>0.76874E+02</wgt>
<wgt id='2205'>0.80426E+02</wgt>
<wgt id='2206'>0.82378E+02</wgt>
<wgt id='2207'>0.86362E+02</wgt>
<wgt id='2208'>0.88288E+02</wgt>
<wgt id='2300'>0.82233E+02</wgt>
<wgt id='2301'>0.82141E+02</wgt>
<wgt id='2302'>0.82337E+02</wgt>
<wgt id='2303'>0.82240E+02</wgt>
<wgt id='2304'>0.82390E+02</wgt>
<wgt id='2305'>0.82388E+02</wgt>
<wgt id='2306'>0.81928E+02</wgt>
<wgt id='2307'>0.82564E+02</wgt>
<wgt id='2308'>0.82549E+02</wgt>
<wgt id='2309'>0.82614E+02</wgt>
<wgt id='2310'>0.81761E+02</wgt>
<wgt id='2311'>0.81970E+02</wgt>
<wgt id='2312'>0.82291E+02</wgt>
<wgt id='2313'>0.82640E+02</wgt>
<wgt id='2314'>0.82508E+02</wgt>
<wgt id='2315'>0.81728E+02</wgt>
<wgt id='2316'>0.82989E+02</wgt>
<wgt id='2317'>0.81921E+02</wgt>
<wgt id='2318'>0.82458E+02</wgt>
<wgt id='2319'>0.81956E+02</wgt>
<wgt id='2320'>0.81763E+02</wgt>
<wgt id='2321'>0.82996E+02</wgt>
<wgt id='2322'>0.82277E+02</wgt>
<wgt id='2323'>0.82108E+02</wgt>
<wgt id='2324'>0.82764E+02</wgt>
<wgt id='2325'>0.81768E+02</wgt>
<wgt id='2326'>0.82217E+02</wgt>
<wgt id='2327'>0.82012E+02</wgt>
<wgt id='2328'>0.82571E+02</wgt>
<wgt id='2329'>0.82580E+02</wgt>
<wgt id='2330'>0.80787E+02</wgt>
<wgt id='2331'>0.82246E+02</wgt>
<wgt id='2332'>0.82214E+02</wgt>
<wgt id='2333'>0.82713E+02</wgt>
<wgt id='2334'>0.81941E+02</wgt>
<wgt id='2335'>0.82414E+02</wgt>
<wgt id='2336'>0.82094E+02</wgt>
<wgt id='2337'>0.81990E+02</wgt>
<wgt id='2338'>0.81927E+02</wgt>
<wgt id='2339'>0.82401E+02</wgt>
<wgt id='2340'>0.82294E+02</wgt>
<wgt id='2341'>0.82145E+02</wgt>
<wgt id='2342'>0.82082E+02</wgt>
<wgt id='2343'>0.82579E+02</wgt>
<wgt id='2344'>0.82189E+02</wgt>
<wgt id='2345'>0.82216E+02</wgt>
<wgt id='2346'>0.82306E+02</wgt>
<wgt id='2347'>0.82440E+02</wgt>
<wgt id='2348'>0.82520E+02</wgt>
<wgt id='2349'>0.81951E+02</wgt>
<wgt id='2350'>0.82327E+02</wgt>
<wgt id='2351'>0.82529E+02</wgt>
<wgt id='2352'>0.82268E+02</wgt>
<wgt id='2353'>0.82181E+02</wgt>
<wgt id='2354'>0.82053E+02</wgt>
<wgt id='2355'>0.82152E+02</wgt>
<wgt id='2356'>0.81860E+02</wgt>
<wgt id='2357'>0.82292E+02</wgt>
<wgt id='2358'>0.82203E+02</wgt>
<wgt id='2359'>0.82383E+02</wgt>
<wgt id='2360'>0.82199E+02</wgt>
<wgt id='2361'>0.82287E+02</wgt>
<wgt id='2362'>0.82275E+02</wgt>
<wgt id='2363'>0.82393E+02</wgt>
<wgt id='2364'>0.82218E+02</wgt>
<wgt id='2365'>0.82309E+02</wgt>
<wgt id='2366'>0.82536E+02</wgt>
<wgt id='2367'>0.81987E+02</wgt>
<wgt id='2368'>0.82190E+02</wgt>
<wgt id='2369'>0.82223E+02</wgt>
<wgt id='2370'>0.82190E+02</wgt>
<wgt id='2371'>0.82285E+02</wgt>
<wgt id='2372'>0.82129E+02</wgt>
<wgt id='2373'>0.82049E+02</wgt>
<wgt id='2374'>0.82353E+02</wgt>
<wgt id='2375'>0.82537E+02</wgt>
<wgt id='2376'>0.82333E+02</wgt>
<wgt id='2377'>0.82168E+02</wgt>
<wgt id='2378'>0.82206E+02</wgt>
<wgt id='2379'>0.82352E+02</wgt>
<wgt id='2380'>0.82162E+02</wgt>
<wgt id='2381'>0.82117E+02</wgt>
<wgt id='2382'>0.82132E+02</wgt>
<wgt id='2383'>0.82071E+02</wgt>
<wgt id='2384'>0.82300E+02</wgt>
<wgt id='2385'>0.82171E+02</wgt>
<wgt id='2386'>0.82241E+02</wgt>
<wgt id='2387'>0.82163E+02</wgt>
<wgt id='2388'>0.82238E+02</wgt>
<wgt id='2389'>0.82300E+02</wgt>
<wgt id='2390'>0.82206E+02</wgt>
<wgt id='2391'>0.82309E+02</wgt>
<wgt id='2392'>0.82201E+02</wgt>
<wgt id='2393'>0.82283E+02</wgt>
<wgt id='2394'>0.82174E+02</wgt>
<wgt id='2395'>0.82177E+02</wgt>
<wgt id='2396'>0.82210E+02</wgt>
<wgt id='2397'>0.82220E+02</wgt>
<wgt id='2398'>0.82207E+02</wgt>
<wgt id='2399'>0.82215E+02</wgt>
<wgt id='2400'>0.82271E+02</wgt>
<wgt id='2401'>0.79693E+02</wgt>
<wgt id='2402'>0.84791E+02</wgt>
<wgt id='2500'>0.78152E+02</wgt>
<wgt id='2501'>0.78303E+02</wgt>
<wgt id='2600'>0.79636E+02</wgt>
<wgt id='2601'>0.79646E+02</wgt>
<wgt id='2602'>0.79425E+02</wgt>
<wgt id='2603'>0.79775E+02</wgt>
<wgt id='2604'>0.79469E+02</wgt>
<wgt id='2605'>0.78360E+02</wgt>
<wgt id='2606'>0.80464E+02</wgt>
<wgt id='2607'>0.79943E+02</wgt>
<wgt id='2608'>0.79601E+02</wgt>
<wgt id='2609'>0.79794E+02</wgt>
<wgt id='2610'>0.79863E+02</wgt>
<wgt id='2611'>0.78599E+02</wgt>
<wgt id='2612'>0.79601E+02</wgt>
<wgt id='2613'>0.79355E+02</wgt>
<wgt id='2614'>0.78808E+02</wgt>
<wgt id='2615'>0.79978E+02</wgt>
<wgt id='2616'>0.79905E+02</wgt>
<wgt id='2617'>0.79957E+02</wgt>
<wgt id='2618'>0.79511E+02</wgt>
<wgt id='2619'>0.79425E+02</wgt>
<wgt id='2620'>0.79757E+02</wgt>
<wgt id='2621'>0.79749E+02</wgt>
<wgt id='2622'>0.79507E+02</wgt>
<wgt id='2623'>0.79867E+02</wgt>
<wgt id='2624'>0.79326E+02</wgt>
<wgt id='2625'>0.79534E+02</wgt>
<wgt id='2626'>0.79529E+02</wgt>
<wgt id='2627'>0.79692E+02</wgt>
<wgt id='2628'>0.79826E+02</wgt>
<wgt id='2629'>0.79499E+02</wgt>
<wgt id='2630'>0.79528E+02</wgt>
<wgt id='2631'>0.79448E+02</wgt>
<wgt id='2632'>0.79597E+02</wgt>
<wgt id='2633'>0.79571E+02</wgt>
<wgt id='2634'>0.79653E+02</wgt>
<wgt id='2635'>0.79548E+02</wgt>
<wgt id='2636'>0.79537E+02</wgt>
<wgt id='2637'>0.79617E+02</wgt>
<wgt id='2638'>0.79632E+02</wgt>
<wgt id='2639'>0.79647E+02</wgt>
<wgt id='2640'>0.79636E+02</wgt>
<wgt id='2641'>0.79544E+02</wgt>
<wgt id='2642'>0.79719E+02</wgt>
<wgt id='2643'>0.79655E+02</wgt>
<wgt id='2644'>0.79668E+02</wgt>
<wgt id='2645'>0.79640E+02</wgt>
<wgt id='2646'>0.79674E+02</wgt>
<wgt id='2647'>0.79666E+02</wgt>
<wgt id='2648'>0.79660E+02</wgt>
<wgt id='2649'>0.79648E+02</wgt>
<wgt id='2650'>0.79651E+02</wgt>
<wgt id='2651'>0.79471E+02</wgt>
<wgt id='2652'>0.80036E+02</wgt>
<wgt id='2700'>0.79686E+02</wgt>
<wgt id='2701'>0.79471E+02</wgt>
<wgt id='2702'>0.79428E+02</wgt>
<wgt id='2703'>0.79556E+02</wgt>
<wgt id='2704'>0.80036E+02</wgt>
<wgt id='2705'>0.80317E+02</wgt>
<wgt id='2800'>0.86241E+02</wgt>
<wgt id='4000'>0.78810E+02</wgt>
<wgt id='4001'>0.78651E+02</wgt>
<wgt id='4002'>0.76838E+02</wgt>
<wgt id='4003'>0.77625E+02</wgt>
<wgt id='4004'>0.80546E+02</wgt>
<wgt id='4005'>0.76040E+02</wgt>
<wgt id='4006'>0.81138E+02</wgt>
<wgt id='4007'>0.77238E+02</wgt>
<wgt id='4008'>0.80342E+02</wgt>
<wgt id='4009'>0.76444E+02</wgt>
<wgt id='4010'>0.80748E+02</wgt>
<wgt id='4011'>0.80069E+02</wgt>
<wgt id='4012'>0.78421E+02</wgt>
<wgt id='4013'>0.78596E+02</wgt>
<wgt id='4014'>0.78654E+02</wgt>
<wgt id='4015'>0.79206E+02</wgt>
<wgt id='4016'>0.77790E+02</wgt>
<wgt id='4017'>0.79980E+02</wgt>
<wgt id='4018'>0.77422E+02</wgt>
<wgt id='4019'>0.81115E+02</wgt>
<wgt id='4020'>0.75064E+02</wgt>
<wgt id='4021'>0.79126E+02</wgt>
<wgt id='4022'>0.78351E+02</wgt>
<wgt id='4023'>0.79026E+02</wgt>
<wgt id='4024'>0.78133E+02</wgt>
<wgt id='4025'>0.78857E+02</wgt>
<wgt id='4026'>0.78883E+02</wgt>
<wgt id='4027'>0.77349E+02</wgt>
<wgt id='4028'>0.79713E+02</wgt>
<wgt id='4029'>0.78853E+02</wgt>
<wgt id='4030'>0.77568E+02</wgt>
<wgt id='4031'>0.78982E+02</wgt>
<wgt id='4032'>0.78811E+02</wgt>
<wgt id='4033'>0.78236E+02</wgt>
<wgt id='4034'>0.78820E+02</wgt>
<wgt id='4035'>0.78070E+02</wgt>
<wgt id='4036'>0.79013E+02</wgt>
<wgt id='4037'>0.77607E+02</wgt>
<wgt id='4038'>0.79184E+02</wgt>
<wgt id='4039'>0.77324E+02</wgt>
<wgt id='4040'>0.79861E+02</wgt>
<wgt id='4041'>0.80297E+02</wgt>
<wgt id='4042'>0.76929E+02</wgt>
<wgt id='4043'>0.78080E+02</wgt>
<wgt id='4044'>0.78861E+02</wgt>
<wgt id='4045'>0.76839E+02</wgt>
<wgt id='4046'>0.79894E+02</wgt>
<wgt id='4047'>0.78254E+02</wgt>
<wgt id='4048'>0.78745E+02</wgt>
<wgt id='4049'>0.79690E+02</wgt>
<wgt id='4050'>0.77259E+02</wgt>
<wgt id='4051'>0.77724E+02</wgt>
<wgt id='4052'>0.79000E+02</wgt>
<wgt id='4053'>0.79423E+02</wgt>
<wgt id='4054'>0.78081E+02</wgt>
<wgt id='4055'>0.78401E+02</wgt>
<wgt id='4056'>0.78076E+02</wgt>
<wgt id='4057'>0.78533E+02</wgt>
<wgt id='4058'>0.79016E+02</wgt>
<wgt id='4100'>0.79129E+02</wgt>
<wgt id='4101'>0.78966E+02</wgt>
<wgt id='4102'>0.78669E+02</wgt>
<wgt id='4103'>0.78549E+02</wgt>
<wgt id='4200'>0.79973E+02</wgt>
<wgt id='4201'>0.78305E+02</wgt>
<wgt id='4202'>0.79941E+02</wgt>
<wgt id='4203'>0.80414E+02</wgt>
<wgt id='4204'>0.80775E+02</wgt>
<wgt id='4205'>0.80929E+02</wgt>
<wgt id='4206'>0.78208E+02</wgt>
<wgt id='4207'>0.79441E+02</wgt>
<wgt id='4208'>0.79248E+02</wgt>
<wgt id='4209'>0.79888E+02</wgt>
<wgt id='4210'>0.80374E+02</wgt>
<wgt id='4211'>0.80318E+02</wgt>
<wgt id='4212'>0.79851E+02</wgt>
<wgt id='4213'>0.81198E+02</wgt>
<wgt id='4214'>0.78579E+02</wgt>
<wgt id='4215'>0.81416E+02</wgt>
<wgt id='4216'>0.78337E+02</wgt>
<wgt id='4217'>0.79715E+02</wgt>
<wgt id='4218'>0.80737E+02</wgt>
<wgt id='4219'>0.80088E+02</wgt>
<wgt id='4220'>0.79720E+02</wgt>
<wgt id='4221'>0.81268E+02</wgt>
<wgt id='4222'>0.79239E+02</wgt>
<wgt id='4223'>0.77787E+02</wgt>
<wgt id='4224'>0.81987E+02</wgt>
<wgt id='4225'>0.80591E+02</wgt>
<wgt id='4226'>0.78942E+02</wgt>
<wgt id='4227'>0.80141E+02</wgt>
<wgt id='4228'>0.79680E+02</wgt>
<wgt id='4229'>0.79347E+02</wgt>
<wgt id='4230'>0.79982E+02</wgt>
<wgt id='4231'>0.81566E+02</wgt>
<wgt id='4232'>0.77262E+02</wgt>
<wgt id='4233'>0.79824E+02</wgt>
<wgt id='4234'>0.80694E+02</wgt>
<wgt id='4235'>0.79001E+02</wgt>
<wgt id='4236'>0.80112E+02</wgt>
<wgt id='4237'>0.80500E+02</wgt>
<wgt id='4238'>0.79541E+02</wgt>
<wgt id='4239'>0.78611E+02</wgt>
<wgt id='4240'>0.80407E+02</wgt>
<wgt id='4241'>0.80379E+02</wgt>
<wgt id='4242'>0.78986E+02</wgt>
<wgt id='4243'>0.78088E+02</wgt>
<wgt id='4244'>0.82524E+02</wgt>
<wgt id='4245'>0.78728E+02</wgt>
<wgt id='4246'>0.81133E+02</wgt>
<wgt id='4247'>0.78897E+02</wgt>
<wgt id='4248'>0.81229E+02</wgt>
<wgt id='4249'>0.78275E+02</wgt>
<wgt id='4250'>0.81462E+02</wgt>
<wgt id='4251'>0.77773E+02</wgt>
<wgt id='4252'>0.81596E+02</wgt>
<wgt id='4253'>0.80904E+02</wgt>
<wgt id='4254'>0.78788E+02</wgt>
<wgt id='4255'>0.78768E+02</wgt>
<wgt id='4256'>0.80010E+02</wgt>
<wgt id='4257'>0.79406E+02</wgt>
<wgt id='4258'>0.80142E+02</wgt>
<wgt id='4300'>0.77508E+02</wgt>
<wgt id='4301'>0.79233E+02</wgt>
<wgt id='5000'>0.76807E+02</wgt>
<wgt id='5001'>0.76443E+02</wgt>
<wgt id='5002'>0.77275E+02</wgt>
<wgt id='5003'>0.76447E+02</wgt>
<wgt id='5004'>0.77135E+02</wgt>
<wgt id='5005'>0.76682E+02</wgt>
<wgt id='5006'>0.77011E+02</wgt>
<wgt id='5007'>0.77185E+02</wgt>
<wgt id='5008'>0.76500E+02</wgt>
<wgt id='5009'>0.76978E+02</wgt>
<wgt id='5010'>0.76631E+02</wgt>
<wgt id='5011'>0.76000E+02</wgt>
<wgt id='5012'>0.77590E+02</wgt>
<wgt id='5013'>0.77038E+02</wgt>
<wgt id='5014'>0.76643E+02</wgt>
<wgt id='5015'>0.77240E+02</wgt>
<wgt id='5016'>0.77240E+02</wgt>
<wgt id='5017'>0.76492E+02</wgt>
<wgt id='5018'>0.77019E+02</wgt>
<wgt id='5019'>0.76242E+02</wgt>
<wgt id='5020'>0.77591E+02</wgt>
<wgt id='5021'>0.76672E+02</wgt>
<wgt id='5022'>0.77006E+02</wgt>
<wgt id='5023'>0.76949E+02</wgt>
<wgt id='5024'>0.76464E+02</wgt>
<wgt id='5025'>0.77170E+02</wgt>
<wgt id='5026'>0.76407E+02</wgt>
<wgt id='5027'>0.77132E+02</wgt>
<wgt id='5028'>0.75926E+02</wgt>
<wgt id='5029'>0.76538E+02</wgt>
<wgt id='5030'>0.76954E+02</wgt>
<wgt id='5031'>0.77458E+02</wgt>
<wgt id='5032'>0.74900E+02</wgt>
<wgt id='5033'>0.77183E+02</wgt>
<wgt id='5034'>0.76404E+02</wgt>
<wgt id='5035'>0.76400E+02</wgt>
<wgt id='5036'>0.77360E+02</wgt>
<wgt id='5037'>0.76833E+02</wgt>
<wgt id='5038'>0.76789E+02</wgt>
<wgt id='5039'>0.76058E+02</wgt>
<wgt id='5040'>0.78661E+02</wgt>
<wgt id='5041'>0.77334E+02</wgt>
<wgt id='5042'>0.76241E+02</wgt>
<wgt id='5043'>0.77864E+02</wgt>
<wgt id='5044'>0.75791E+02</wgt>
<wgt id='5045'>0.76472E+02</wgt>
<wgt id='5046'>0.77538E+02</wgt>
<wgt id='5047'>0.76735E+02</wgt>
<wgt id='5048'>0.76937E+02</wgt>
<wgt id='5049'>0.76943E+02</wgt>
<wgt id='5050'>0.76443E+02</wgt>
<wgt id='5051'>0.76715E+02</wgt>
<wgt id='5052'>0.76842E+02</wgt>
<wgt id='5053'>0.76566E+02</wgt>
<wgt id='5054'>0.76866E+02</wgt>
<wgt id='5055'>0.76285E+02</wgt>
<wgt id='5056'>0.77643E+02</wgt>
<wgt id='5057'>0.75356E+02</wgt>
<wgt id='5058'>0.77727E+02</wgt>
<wgt id='5059'>0.76765E+02</wgt>
<wgt id='5060'>0.76805E+02</wgt>
<wgt id='5061'>0.75947E+02</wgt>
<wgt id='5062'>0.76784E+02</wgt>
<wgt id='5063'>0.77761E+02</wgt>
<wgt id='5064'>0.76776E+02</wgt>
<wgt id='5100'>0.76807E+02</wgt>
<wgt id='5101'>0.77008E+02</wgt>
<wgt id='6000'>0.77566E+02</wgt>
<wgt id='6001'>0.77226E+02</wgt>
<wgt id='6002'>0.76533E+02</wgt>
<wgt id='6003'>0.77337E+02</wgt>
<wgt id='6004'>0.76601E+02</wgt>
<wgt id='6005'>0.77712E+02</wgt>
<wgt id='6006'>0.77261E+02</wgt>
<wgt id='6007'>0.77703E+02</wgt>
<wgt id='6008'>0.77600E+02</wgt>
<wgt id='6009'>0.77845E+02</wgt>
<wgt id='6010'>0.77919E+02</wgt>
<wgt id='6011'>0.77277E+02</wgt>
<wgt id='6012'>0.77752E+02</wgt>
<wgt id='6013'>0.78292E+02</wgt>
<wgt id='6014'>0.77659E+02</wgt>
<wgt id='6015'>0.77780E+02</wgt>
<wgt id='6016'>0.78463E+02</wgt>
<wgt id='6017'>0.79382E+02</wgt>
<wgt id='6018'>0.77848E+02</wgt>
<wgt id='6019'>0.77442E+02</wgt>
<wgt id='6020'>0.77545E+02</wgt>
<wgt id='6021'>0.76034E+02</wgt>
<wgt id='6022'>0.77452E+02</wgt>
<wgt id='6023'>0.77668E+02</wgt>
<wgt id='6024'>0.77663E+02</wgt>
<wgt id='6025'>0.76919E+02</wgt>
<wgt id='6026'>0.77490E+02</wgt>
<wgt id='6027'>0.77117E+02</wgt>
<wgt id='6028'>0.77369E+02</wgt>
<wgt id='6029'>0.76962E+02</wgt>
<wgt id='6030'>0.77606E+02</wgt>
<wgt id='6031'>0.77507E+02</wgt>
<wgt id='6032'>0.77397E+02</wgt>
<wgt id='6033'>0.77471E+02</wgt>
<wgt id='6034'>0.77633E+02</wgt>
<wgt id='6035'>0.77523E+02</wgt>
<wgt id='6036'>0.77464E+02</wgt>
<wgt id='6037'>0.77581E+02</wgt>
<wgt id='6038'>0.77764E+02</wgt>
<wgt id='6039'>0.77518E+02</wgt>
<wgt id='6040'>0.78517E+02</wgt>
<wgt id='6041'>0.76781E+02</wgt>
<wgt id='6042'>0.79230E+02</wgt>
<wgt id='7000'>0.75109E+02</wgt>
<wgt id='7001'>0.75209E+02</wgt>
<wgt id='7002'>0.74954E+02</wgt>
<wgt id='7003'>0.74900E+02</wgt>
<wgt id='7004'>0.75263E+02</wgt>
<wgt id='7005'>0.75106E+02</wgt>
<wgt id='7006'>0.75057E+02</wgt>
<wgt id='7007'>0.74695E+02</wgt>
<wgt id='7008'>0.75459E+02</wgt>
<wgt id='7009'>0.75204E+02</wgt>
<wgt id='7010'>0.74956E+02</wgt>
<wgt id='7011'>0.74641E+02</wgt>
<wgt id='7012'>0.75490E+02</wgt>
<wgt id='7013'>0.75127E+02</wgt>
<wgt id='7014'>0.75031E+02</wgt>
<wgt id='7015'>0.74983E+02</wgt>
<wgt id='7016'>0.75109E+02</wgt>
<wgt id='7017'>0.74758E+02</wgt>
<wgt id='7018'>0.75392E+02</wgt>
<wgt id='7019'>0.73604E+02</wgt>
<wgt id='7020'>0.76501E+02</wgt>
<wgt id='7021'>0.75596E+02</wgt>
<wgt id='7022'>0.74534E+02</wgt>
<wgt id='7023'>0.76405E+02</wgt>
<wgt id='7024'>0.73834E+02</wgt>
<wgt id='7025'>0.76225E+02</wgt>
<wgt id='7026'>0.74121E+02</wgt>
<wgt id='7027'>0.75751E+02</wgt>
<wgt id='7028'>0.74538E+02</wgt>
<wgt id='8000'>0.74186E+02</wgt>
<wgt id='8001'>0.74172E+02</wgt>
<wgt id='8002'>0.74203E+02</wgt>
<wgt id='8003'>0.74059E+02</wgt>
<wgt id='8004'>0.74190E+02</wgt>
<wgt id='8005'>0.74422E+02</wgt>
<wgt id='8006'>0.73734E+02</wgt>
<wgt id='8007'>0.74449E+02</wgt>
<wgt id='8008'>0.74221E+02</wgt>
<wgt id='8009'>0.73631E+02</wgt>
<wgt id='8010'>0.74184E+02</wgt>
<wgt id='8011'>0.74313E+02</wgt>
<wgt id='8012'>0.74417E+02</wgt>
<wgt id='8013'>0.74210E+02</wgt>
<wgt id='8014'>0.74202E+02</wgt>
<wgt id='8015'>0.74093E+02</wgt>
<wgt id='8016'>0.73864E+02</wgt>
<wgt id='8017'>0.74032E+02</wgt>
<wgt id='8018'>0.74138E+02</wgt>
<wgt id='8019'>0.74391E+02</wgt>
<wgt id='8020'>0.74236E+02</wgt>
<wgt id='8021'>0.73848E+02</wgt>
<wgt id='8022'>0.74181E+02</wgt>
<wgt id='8023'>0.74717E+02</wgt>
<wgt id='8024'>0.74488E+02</wgt>
<wgt id='8025'>0.74057E+02</wgt>
<wgt id='8026'>0.74450E+02</wgt>
<wgt id='8027'>0.74622E+02</wgt>
<wgt id='8028'>0.73737E+02</wgt>
<wgt id='8029'>0.73489E+02</wgt>
<wgt id='3000'>0.81104E+02</wgt>
<wgt id='3001'>0.89966E+02</wgt>
<wgt id='3002'>0.83517E+02</wgt>
<wgt id='3003'>0.78280E+02</wgt>
<wgt id='3004'>0.80818E+02</wgt>
<wgt id='3005'>0.81221E+02</wgt>
<wgt id='3006'>0.85240E+02</wgt>
<wgt id='3007'>0.84295E+02</wgt>
<wgt id='3008'>0.77561E+02</wgt>
<wgt id='3009'>0.80787E+02</wgt>
<wgt id='3010'>0.76538E+02</wgt>
<wgt id='3011'>0.77870E+02</wgt>
<wgt id='3012'>0.79123E+02</wgt>
<wgt id='3013'>0.78284E+02</wgt>
<wgt id='3014'>0.80417E+02</wgt>
<wgt id='3015'>0.81678E+02</wgt>
<wgt id='3016'>0.80379E+02</wgt>
<wgt id='3017'>0.82929E+02</wgt>
<wgt id='3018'>0.81383E+02</wgt>
<wgt id='3019'>0.82743E+02</wgt>
<wgt id='3020'>0.76882E+02</wgt>
<wgt id='3021'>0.82160E+02</wgt>
<wgt id='3022'>0.84153E+02</wgt>
<wgt id='3023'>0.84909E+02</wgt>
<wgt id='3024'>0.77724E+02</wgt>
<wgt id='3025'>0.82406E+02</wgt>
<wgt id='3026'>0.81095E+02</wgt>
<wgt id='3027'>0.84224E+02</wgt>
<wgt id='3028'>0.81801E+02</wgt>
<wgt id='3029'>0.80042E+02</wgt>
<wgt id='3030'>0.84312E+02</wgt>
<wgt id='3031'>0.83632E+02</wgt>
<wgt id='3032'>0.81049E+02</wgt>
<wgt id='3033'>0.87872E+02</wgt>
<wgt id='3034'>0.75292E+02</wgt>
<wgt id='3035'>0.79621E+02</wgt>
<wgt id='3036'>0.81583E+02</wgt>
<wgt id='3037'>0.80431E+02</wgt>
<wgt id='3038'>0.79744E+02</wgt>
<wgt id='3039'>0.79604E+02</wgt>
<wgt id='3040'>0.80145E+02</wgt>
<wgt id='3041'>0.82952E+02</wgt>
<wgt id='3042'>0.82707E+02</wgt>
<wgt id='3043'>0.83558E+02</wgt>
<wgt id='3044'>0.83763E+02</wgt>
<wgt id='3045'>0.80659E+02</wgt>
<wgt id='3046'>0.80636E+02</wgt>
<wgt id='3047'>0.81603E+02</wgt>
<wgt id='3048'>0.78116E+02</wgt>
<wgt id='3049'>0.83473E+02</wgt>
<wgt id='3050'>0.81164E+02</wgt>
<wgt id='3051'>0.79316E+02</wgt>
<wgt id='3052'>0.82442E+02</wgt>
<wgt id='3053'>0.80232E+02</wgt>
<wgt id='3054'>0.84203E+02</wgt>
<wgt id='3055'>0.82011E+02</wgt>
<wgt id='3056'>0.82621E+02</wgt>
<wgt id='3057'>0.84320E+02</wgt>
<wgt id='3058'>0.84073E+02</wgt>
<wgt id='3059'>0.81093E+02</wgt>
<wgt id='3060'>0.84632E+02</wgt>
<wgt id='3061'>0.81886E+02</wgt>
<wgt id='3062'>0.81523E+02</wgt>
<wgt id='3063'>0.78566E+02</wgt>
<wgt id='3064'>0.76948E+02</wgt>
<wgt id='3065'>0.84526E+02</wgt>
<wgt id='3066'>0.82251E+02</wgt>
<wgt id='3067'>0.83527E+02</wgt>
<wgt id='3068'>0.83255E+02</wgt>
<wgt id='3069'>0.80849E+02</wgt>
<wgt id='3070'>0.78973E+02</wgt>
<wgt id='3071'>0.82930E+02</wgt>
<wgt id='3072'>0.78693E+02</wgt>
<wgt id='3073'>0.77952E+02</wgt>
<wgt id='3074'>0.76313E+02</wgt>
<wgt id='3075'>0.77439E+02</wgt>
<wgt id='3076'>0.84571E+02</wgt>
<wgt id='3077'>0.79681E+02</wgt>
<wgt id='3078'>0.83770E+02</wgt>
<wgt id='3079'>0.79766E+02</wgt>
<wgt id='3080'>0.77582E+02</wgt>
<wgt id='3081'>0.82306E+02</wgt>
<wgt id='3082'>0.80379E+02</wgt>
<wgt id='3083'>0.75652E+02</wgt>
<wgt id='3084'>0.78806E+02</wgt>
<wgt id='3085'>0.80772E+02</wgt>
<wgt id='3086'>0.85381E+02</wgt>
<wgt id='3087'>0.78727E+02</wgt>
<wgt id='3088'>0.81115E+02</wgt>
<wgt id='3089'>0.66827E+02</wgt>
<wgt id='3090'>0.80581E+02</wgt>
<wgt id='3091'>0.83926E+02</wgt>
<wgt id='3092'>0.76281E+02</wgt>
<wgt id='3093'>0.78757E+02</wgt>
<wgt id='3094'>0.82544E+02</wgt>
<wgt id='3095'>0.82930E+02</wgt>
<wgt id='3096'>0.83954E+02</wgt>
<wgt id='3097'>0.81824E+02</wgt>
<wgt id='3098'>0.80634E+02</wgt>
<wgt id='3099'>0.80035E+02</wgt>
<wgt id='3100'>0.84172E+02</wgt>
<wgt id='3200'>0.79704E+02</wgt>
<wgt id='3201'>0.79548E+02</wgt>
<wgt id='3202'>0.81872E+02</wgt>
<wgt id='3203'>0.77510E+02</wgt>
<wgt id='3204'>0.83282E+02</wgt>
<wgt id='3205'>0.83025E+02</wgt>
<wgt id='3206'>0.76826E+02</wgt>
<wgt id='3207'>0.76396E+02</wgt>
<wgt id='3208'>0.79541E+02</wgt>
<wgt id='3209'>0.82155E+02</wgt>
<wgt id='3210'>0.76254E+02</wgt>
<wgt id='3211'>0.78745E+02</wgt>
<wgt id='3212'>0.79353E+02</wgt>
<wgt id='3213'>0.77577E+02</wgt>
<wgt id='3214'>0.83517E+02</wgt>
<wgt id='3215'>0.78674E+02</wgt>
<wgt id='3216'>0.79663E+02</wgt>
<wgt id='3217'>0.79191E+02</wgt>
<wgt id='3218'>0.79604E+02</wgt>
<wgt id='3219'>0.79797E+02</wgt>
<wgt id='3220'>0.77654E+02</wgt>
<wgt id='3221'>0.78271E+02</wgt>
<wgt id='3222'>0.76900E+02</wgt>
<wgt id='3223'>0.78153E+02</wgt>
<wgt id='3224'>0.79942E+02</wgt>
<wgt id='3225'>0.82681E+02</wgt>
<wgt id='3226'>0.76558E+02</wgt>
<wgt id='3227'>0.80690E+02</wgt>
<wgt id='3228'>0.82117E+02</wgt>
<wgt id='3229'>0.79191E+02</wgt>
<wgt id='3230'>0.79746E+02</wgt>
<wgt id='3231'>0.79487E+02</wgt>
<wgt id='3232'>0.82029E+02</wgt>
<wgt id='3233'>0.83503E+02</wgt>
<wgt id='3234'>0.77768E+02</wgt>
<wgt id='3235'>0.75055E+02</wgt>
<wgt id='3236'>0.78223E+02</wgt>
<wgt id='3237'>0.81818E+02</wgt>
<wgt id='3238'>0.81389E+02</wgt>
<wgt id='3239'>0.82024E+02</wgt>
<wgt id='3240'>0.77207E+02</wgt>
<wgt id='3241'>0.85470E+02</wgt>
<wgt id='3242'>0.76007E+02</wgt>
<wgt id='3243'>0.81065E+02</wgt>
<wgt id='3244'>0.81914E+02</wgt>
<wgt id='3245'>0.78827E+02</wgt>
<wgt id='3246'>0.79200E+02</wgt>
<wgt id='3247'>0.80409E+02</wgt>
<wgt id='3248'>0.75502E+02</wgt>
<wgt id='3249'>0.81203E+02</wgt>
<wgt id='3250'>0.76869E+02</wgt>
<wgt id='3251'>0.79167E+02</wgt>
<wgt id='3252'>0.80239E+02</wgt>
<wgt id='3253'>0.80745E+02</wgt>
<wgt id='3254'>0.78160E+02</wgt>
<wgt id='3255'>0.75409E+02</wgt>
<wgt id='3256'>0.80052E+02</wgt>
<wgt id='3257'>0.71828E+02</wgt>
<wgt id='3258'>0.82156E+02</wgt>
<wgt id='3259'>0.82617E+02</wgt>
<wgt id='3260'>0.80734E+02</wgt>
<wgt id='3261'>0.79450E+02</wgt>
<wgt id='3262'>0.75027E+02</wgt>
<wgt id='3263'>0.80521E+02</wgt>
<wgt id='3264'>0.76236E+02</wgt>
<wgt id='3265'>0.78659E+02</wgt>
<wgt id='3266'>0.81818E+02</wgt>
<wgt id='3267'>0.78875E+02</wgt>
<wgt id='3268'>0.80676E+02</wgt>
<wgt id='3269'>0.80448E+02</wgt>
<wgt id='3270'>0.82196E+02</wgt>
<wgt id='3271'>0.77879E+02</wgt>
<wgt id='3272'>0.79930E+02</wgt>
<wgt id='3273'>0.77381E+02</wgt>
<wgt id='3274'>0.81035E+02</wgt>
<wgt id='3275'>0.82405E+02</wgt>
<wgt id='3276'>0.80663E+02</wgt>
<wgt id='3277'>0.82276E+02</wgt>
<wgt id='3278'>0.79989E+02</wgt>
<wgt id='3279'>0.80403E+02</wgt>
<wgt id='3280'>0.82702E+02</wgt>
<wgt id='3281'>0.80653E+02</wgt>
<wgt id='3282'>0.83240E+02</wgt>
<wgt id='3283'>0.77758E+02</wgt>
<wgt id='3284'>0.80439E+02</wgt>
<wgt id='3285'>0.79259E+02</wgt>
<wgt id='3286'>0.78528E+02</wgt>
<wgt id='3287'>0.77634E+02</wgt>
<wgt id='3288'>0.79699E+02</wgt>
<wgt id='3289'>0.79559E+02</wgt>
<wgt id='3290'>0.83091E+02</wgt>
<wgt id='3291'>0.78496E+02</wgt>
<wgt id='3292'>0.77767E+02</wgt>
<wgt id='3293'>0.79588E+02</wgt>
<wgt id='3294'>0.80882E+02</wgt>
<wgt id='3295'>0.81166E+02</wgt>
<wgt id='3296'>0.78423E+02</wgt>
<wgt id='3297'>0.83336E+02</wgt>
<wgt id='3298'>0.78861E+02</wgt>
<wgt id='3299'>0.79697E+02</wgt>
<wgt id='3300'>0.84041E+02</wgt>
<wgt id='3301'>0.79471E+02</wgt>
<wgt id='3302'>0.80036E+02</wgt>
<wgt id='3400'>0.80480E+02</wgt>
<wgt id='3401'>0.80114E+02</wgt>
<wgt id='3402'>0.82044E+02</wgt>
<wgt id='3403'>0.80423E+02</wgt>
<wgt id='3404'>0.79779E+02</wgt>
<wgt id='3405'>0.78624E+02</wgt>
<wgt id='3406'>0.81854E+02</wgt>
<wgt id='3407'>0.77172E+02</wgt>
<wgt id='3408'>0.79114E+02</wgt>
<wgt id='3409'>0.80104E+02</wgt>
<wgt id='3410'>0.82494E+02</wgt>
<wgt id='3411'>0.75927E+02</wgt>
<wgt id='3412'>0.77689E+02</wgt>
<wgt id='3413'>0.78531E+02</wgt>
<wgt id='3414'>0.83857E+02</wgt>
<wgt id='3415'>0.81888E+02</wgt>
<wgt id='3416'>0.82437E+02</wgt>
<wgt id='3417'>0.80358E+02</wgt>
<wgt id='3418'>0.80428E+02</wgt>
<wgt id='3419'>0.81322E+02</wgt>
<wgt id='3420'>0.82070E+02</wgt>
<wgt id='3421'>0.82220E+02</wgt>
<wgt id='3422'>0.80949E+02</wgt>
<wgt id='3423'>0.79365E+02</wgt>
<wgt id='3424'>0.79665E+02</wgt>
<wgt id='3425'>0.80993E+02</wgt>
<wgt id='3426'>0.81115E+02</wgt>
<wgt id='3427'>0.80999E+02</wgt>
<wgt id='3428'>0.82601E+02</wgt>
<wgt id='3429'>0.78449E+02</wgt>
<wgt id='3430'>0.77072E+02</wgt>
<wgt id='3431'>0.82155E+02</wgt>
<wgt id='3432'>0.81905E+02</wgt>
<wgt id='3433'>0.82658E+02</wgt>
<wgt id='3434'>0.80215E+02</wgt>
<wgt id='3435'>0.81076E+02</wgt>
<wgt id='3436'>0.83458E+02</wgt>
<wgt id='3437'>0.81331E+02</wgt>
<wgt id='3438'>0.82905E+02</wgt>
<wgt id='3439'>0.81358E+02</wgt>
<wgt id='3440'>0.81773E+02</wgt>
<wgt id='3441'>0.80458E+02</wgt>
<wgt id='3442'>0.78720E+02</wgt>
<wgt id='3443'>0.80711E+02</wgt>
<wgt id='3444'>0.78808E+02</wgt>
<wgt id='3445'>0.79317E+02</wgt>
<wgt id='3446'>0.80706E+02</wgt>
<wgt id='3447'>0.79738E+02</wgt>
<wgt id='3448'>0.85505E+02</wgt>
<wgt id='3449'>0.82583E+02</wgt>
<wgt id='3450'>0.79704E+02</wgt>
<wgt id='3451'>0.81554E+02</wgt>
<wgt id='3452'>0.79289E+02</wgt>
<wgt id='3453'>0.78896E+02</wgt>
<wgt id='3454'>0.77134E+02</wgt>
<wgt id='3455'>0.80555E+02</wgt>
<wgt id='3456'>0.80287E+02</wgt>
<wgt id='3457'>0.82131E+02</wgt>
<wgt id='3458'>0.78437E+02</wgt>
<wgt id='3459'>0.81549E+02</wgt>
<wgt id='3460'>0.80874E+02</wgt>
<wgt id='3461'>0.82404E+02</wgt>
<wgt id='3462'>0.79880E+02</wgt>
<wgt id='3463'>0.79796E+02</wgt>
<wgt id='3464'>0.81233E+02</wgt>
<wgt id='3465'>0.80937E+02</wgt>
<wgt id='3466'>0.81972E+02</wgt>
<wgt id='3467'>0.80922E+02</wgt>
<wgt id='3468'>0.81993E+02</wgt>
<wgt id='3469'>0.82493E+02</wgt>
<wgt id='3470'>0.80479E+02</wgt>
<wgt id='3471'>0.76341E+02</wgt>
<wgt id='3472'>0.76325E+02</wgt>
<wgt id='3473'>0.81422E+02</wgt>
<wgt id='3474'>0.80395E+02</wgt>
<wgt id='3475'>0.80956E+02</wgt>
<wgt id='3476'>0.84142E+02</wgt>
<wgt id='3477'>0.78908E+02</wgt>
<wgt id='3478'>0.80700E+02</wgt>
<wgt id='3479'>0.77025E+02</wgt>
<wgt id='3480'>0.81219E+02</wgt>
<wgt id='3481'>0.83048E+02</wgt>
<wgt id='3482'>0.81118E+02</wgt>
<wgt id='3483'>0.79583E+02</wgt>
<wgt id='3484'>0.80352E+02</wgt>
<wgt id='3485'>0.78851E+02</wgt>
<wgt id='3486'>0.81042E+02</wgt>
<wgt id='3487'>0.78081E+02</wgt>
<wgt id='3488'>0.78915E+02</wgt>
<wgt id='3489'>0.78766E+02</wgt>
<wgt id='3490'>0.77479E+02</wgt>
<wgt id='3491'>0.81695E+02</wgt>
<wgt id='3492'>0.80534E+02</wgt>
<wgt id='3493'>0.77787E+02</wgt>
<wgt id='3494'>0.82818E+02</wgt>
<wgt id='3495'>0.79397E+02</wgt>
<wgt id='3496'>0.80043E+02</wgt>
<wgt id='3497'>0.82152E+02</wgt>
<wgt id='3498'>0.80983E+02</wgt>
<wgt id='3499'>0.80920E+02</wgt>
<wgt id='3500'>0.79777E+02</wgt>
</rwgt>
</event>
<event>
     13 322200  8.11039E+01  3.19598E+01 -1.00000E+00  1.48775E-01
      21    -1     0     0   504   505  0.000000000E+00  0.000000000E+00  2.651488923E+02  2.651488923E+02  0.000000000E+00  0.00000E+00  9.000E+00
      21    -1     0     0   502   503  0.000000000E+00  0.000000000E+00 -1.032523523E+03  1.032523523E+03  0.000000000E+00  0.00000E+00  9.000E+00
       6     2     1     2   502     0 -1.086743267E+02 -3.770548786E+01 -4.836020597E+02  5.260710302E+02  1.721858403E+02  0.00000E+00  9.000E+00
      -6     2     1     2     0   505  1.406310915E+02  3.814727821E+01 -5.020686519E+02  5.509781576E+02  1.739875866E+02  0.00000E+00  9.000E+00
      21     1     1     2   504   503 -3.195676479E+01 -4.417903495E-01  2.182960803E+02  2.206232279E+02  4.672030912E-06  0.00000E+00  9.000E+00
      24     2     3     3     0     0 -1.017326134E+01 -2.944482945E+01 -1.148547956E+02  1.442715452E+02  8.156078386E+01  0.00000E+00  9.000E+00
       5     1     3     3   502     0 -9.850106535E+01 -8.260658406E+00 -3.687472641E+02  3.817994850E+02  5.060000000E+00  0.00000E+00 -1.000E+00
     -24     2     4     4     0     0  2.181239906E+01  3.079448784E+01 -1.084461252E+02  1.397163891E+02  7.959915870E+01  0.00000E+00  9.000E+00
      -5     1     4     4     0   505  1.188186924E+02  7.352790362E+00 -3.936225266E+02  4.112617686E+02  5.060000000E+00  0.00000E+00  1.000E+00
     -13     1     6     6     0     0 -2.113404745E+01 -3.557886458E+01 -1.226808951E+02  1.294724556E+02  1.057000000E-01  0.00000E+00  1.000E+00
      14     1     6     6     0     0  1.096078610E+01  6.134035132E+00  7.826099532E+00  1.479908960E+01  0.000000000E+00  0.00000E+00 -1.000E+00
      11     1     8     8     0     0  5.097122153E+01  2.036724988E+01 -8.362171439E+01  1.000274033E+02  5.100000000E-04  0.00000E+00 -1.000E+00
     -12     1     8     8     0     0 -2.915882246E+01  1.042723796E+01 -2.482441082E+01  3.968898577E+01  0.000000000E+00  0.00000E+00  1.000E+00
#rwgt            1           1   644.86026325262935               10       31012           0
<rwgt>
<wgt id='1001'>0.81104E+02</wgt>
<wgt id='1002'>0.89540E+02</wgt>
<wgt id='1003'>0.71536E+02</wgt>
<wgt id='1004'>0.69448E+02</wgt>
<wgt id='1005'>0.75562E+02</wgt>
<wgt id='1006'>0.62468E+02</wgt>
<wgt id='1007'>0.95997E+02</wgt>
<wgt id='1008'>0.10791E+03</wgt>
<wgt id='1009'>0.82574E+02</wgt>
<wgt id='2000'>0.81104E+02</wgt>
<wgt id='2001'>0.80936E+02</wgt>
<wgt id='2002'>0.81020E+02</wgt>
<wgt id='2003'>0.81191E+02</wgt>
<wgt id='2004'>0.81440E+02</wgt>
<wgt id='2005'>0.80887E+02</wgt>
<wgt id='2006'>0.81324E+02</wgt>
<wgt id='2007'>0.81246E+02</wgt>
<wgt id='2008'>0.81098E+02</wgt>
<wgt id='2009'>0.81367E+02</wgt>
<wgt id='2010'>0.81088E+02</wgt>
<wgt id='2011'>0.81212E+02</wgt>
<wgt id='2012'>0.81324E+02</wgt>
<wgt id='2013'>0.81079E+02</wgt>
<wgt id='2014'>0.81077E+02</wgt>
<wgt id='2015'>0.81090E+02</wgt>
<wgt id='2016'>0.81057E+02</wgt>
<wgt id='2017'>0.81078E+02</wgt>
<wgt id='2018'>0.80891E+02</wgt>
<wgt id='2019'>0.80542E+02</wgt>
<wgt id='2020'>0.80954E+02</wgt>
<wgt id='2021'>0.81165E+02</wgt>
<wgt id='2022'>0.80948E+02</wgt>
<wgt id='2023'>0.81256E+02</wgt>
<wgt id='2024'>0.80505E+02</wgt>
<wgt id='2025'>0.81428E+02</wgt>
<wgt id='2026'>0.81205E+02</wgt>
<wgt id='2027'>0.81456E+02</wgt>
<wgt id='2028'>0.80901E+02</wgt>
<wgt id='2029'>0.80965E+02</wgt>
<wgt id='2030'>0.81183E+02</wgt>
<wgt id='2031'>0.80732E+02</wgt>
<wgt id='2032'>0.80954E+02</wgt>
<wgt id='2033'>0.80933E+02</wgt>
<wgt id='2034'>0.80788E+02</wgt>
<wgt id='2035'>0.81186E+02</wgt>
<wgt id='2036'>0.81277E+02</wgt>
<wgt id='2037'>0.80948E+02</wgt>
<wgt id='2038'>0.81016E+02</wgt>
<wgt id='2039'>0.81018E+02</wgt>
<wgt id='2040'>0.80935E+02</wgt>
<wgt id='2041'>0.81035E+02</wgt>
<wgt id='2042'>0.81269E+02</wgt>
<wgt id='2043'>0.81135E+02</wgt>
<wgt id='2044'>0.81129E+02</wgt>
<wgt id='2045'>0.81082E+02</wgt>
<wgt id='2046'>0.81008E+02</wgt>
<wgt id='2047'>0.81125E+02</wgt>
<wgt id='2048'>0.81037E+02</wgt>
<wgt id='2049'>0.81026E+02</wgt>
<wgt id='2050'>0.81003E+02</wgt>
<wgt id='2051'>0.81011E+02</wgt>
<wgt id='2052'>0.81236E+02</wgt>
<wgt id='2053'>0.81066E+02</wgt>
<wgt id='2054'>0.81065E+02</wgt>
<wgt id='2055'>0.81068E+02</wgt>
<wgt id='2056'>0.81050E+02</wgt>
<wgt id='2057'>0.81153E+02</wgt>
<wgt id='2058'>0.81161E+02</wgt>
<wgt id='2059'>0.81083E+02</wgt>
<wgt id='2060'>0.81098E+02</wgt>
<wgt id='2061'>0.81049E+02</wgt>
<wgt id='2062'>0.81204E+02</wgt>
<wgt id='2063'>0.81124E+02</wgt>
<wgt id='2064'>0.81104E+02</wgt>
<wgt id='2065'>0.81175E+02</wgt>
<wgt id='2066'>0.81059E+02</wgt>
<wgt id='2067'>0.81066E+02</wgt>
<wgt id='2068'>0.81165E+02</wgt>
<wgt id='2069'>0.81102E+02</wgt>
<wgt id='2070'>0.81111E+02</wgt>
<wgt id='2071'>0.81093E+02</wgt>
<wgt id='2072'>0.81075E+02</wgt>
<wgt id='2073'>0.81119E+02</wgt>
<wgt id='2074'>0.81077E+02</wgt>
<wgt id='2075'>0.81083E+02</wgt>
<wgt id='2076'>0.81102E+02</wgt>
<wgt id='2077'>0.81156E+02</wgt>
<wgt id='2078'>0.81122E+02</wgt>
<wgt id='2079'>0.81089E+02</wgt>
<wgt id='2080'>0.81118E+02</wgt>
<wgt id='2081'>0.81090E+02</wgt>
<wgt id='2082'>0.81124E+02</wgt>
<wgt id='2083'>0.81156E+02</wgt>
<wgt id='2084'>0.81095E+02</wgt>
<wgt id='2085'>0.81110E+02</wgt>
<wgt id='2086'>0.81088E+02</wgt>
<wgt id='2087'>0.81117E+02</wgt>
<wgt id='2088'>0.81091E+02</wgt>
<wgt id='2089'>0.81084E+02</wgt>
<wgt id='2090'>0.81127E+02</wgt>
<wgt id='2091'>0.81118E+02</wgt>
<wgt id='2092'>0.81139E+02</wgt>
<wgt id='2093'>0.81076E+02</wgt>
<wgt id='2094'>0.81117E+02</wgt>
<wgt id='2095'>0.81129E+02</wgt>
<wgt id='2096'>0.81085E+02</wgt>
<wgt id='2097'>0.81129E+02</wgt>
<wgt id='2098'>0.81108E+02</wgt>
<wgt id='2099'>0.81119E+02</wgt>
<wgt id='2100'>0.81104E+02</wgt>
<wgt id='2101'>0.79258E+02</wgt>
<wgt id='2102'>0.83228E+02</wgt>
<wgt id='2200'>0.80966E+02</wgt>
<wgt id='2201'>0.70321E+02</wgt>
<wgt id='2202'>0.72474E+02</wgt>
<wgt id='2203'>0.74731E+02</wgt>
<wgt id='2204'>0.76389E+02</wgt>
<wgt id='2205'>0.79826E+02</wgt>
<wgt id='2206'>0.82318E+02</wgt>
<wgt id='2207'>0.85510E+02</wgt>
<wgt id='2208'>0.88123E+02</wgt>
<wgt id='2300'>0.86450E+02</wgt>
<wgt id='2301'>0.86578E+02</wgt>
<wgt id='2302'>0.86375E+02</wgt>
<wgt id='2303'>0.86406E+02</wgt>
<wgt id='2304'>0.86721E+02</wgt>
<wgt id='2305'>0.86483E+02</wgt>
<wgt id='2306'>0.86439E+02</wgt>
<wgt id='2307'>0.86399E+02</wgt>
<wgt id='2308'>0.86332E+02</wgt>
<wgt id='2309'>0.86278E+02</wgt>
<wgt id='2310'>0.86172E+02</wgt>
<wgt id='2311'>0.86495E+02</wgt>
<wgt id='2312'>0.86627E+02</wgt>
<wgt id='2313'>0.86400E+02</wgt>
<wgt id='2314'>0.86384E+02</wgt>
<wgt id='2315'>0.86436E+02</wgt>
<wgt id='2316'>0.86554E+02</wgt>
<wgt id='2317'>0.86421E+02</wgt>
<wgt id='2318'>0.86489E+02</wgt>
<wgt id='2319'>0.86493E+02</wgt>
<wgt id='2320'>0.86617E+02</wgt>
<wgt id='2321'>0.86644E+02</wgt>
<wgt id='2322'>0.86370E+02</wgt>
<wgt id='2323'>0.86364E+02</wgt>
<wgt id='2324'>0.86494E+02</wgt>
<wgt id='2325'>0.86470E+02</wgt>
<wgt id='2326'>0.86292E+02</wgt>
<wgt id='2327'>0.86533E+02</wgt>
<wgt id='2328'>0.86443E+02</wgt>
<wgt id='2329'>0.86409E+02</wgt>
<wgt id='2330'>0.86852E+02</wgt>
<wgt id='2331'>0.86642E+02</wgt>
<wgt id='2332'>0.86188E+02</wgt>
<wgt id='2333'>0.86176E+02</wgt>
<wgt id='2334'>0.86438E+02</wgt>
<wgt id='2335'>0.85823E+02</wgt>
<wgt id='2336'>0.86500E+02</wgt>
<wgt id='2337'>0.86844E+02</wgt>
<wgt id='2338'>0.86494E+02</wgt>
<wgt id='2339'>0.86521E+02</wgt>
<wgt id='2340'>0.86900E+02</wgt>
<wgt id='2341'>0.86660E+02</wgt>
<wgt id='2342'>0.86096E+02</wgt>
<wgt id='2343'>0.86117E+02</wgt>
<wgt id='2344'>0.86545E+02</wgt>
<wgt id='2345'>0.86529E+02</wgt>
<wgt id='2346'>0.86787E+02</wgt>
<wgt id='2347'>0.86367E+02</wgt>
<wgt id='2348'>0.86645E+02</wgt>
<wgt id='2349'>0.86424E+02</wgt>
<wgt id='2350'>0.86261E+02</wgt>
<wgt id='2351'>0.86615E+02</wgt>
<wgt id='2352'>0.86282E+02</wgt>
<wgt id='2353'>0.86434E+02</wgt>
<wgt id='2354'>0.86495E+02</wgt>
<wgt id='2355'>0.86241E+02</wgt>
<wgt id='2356'>0.86405E+02</wgt>
<wgt id='2357'>0.86378E+02</wgt>
<wgt id='2358'>0.86380E+02</wgt>
<wgt id='2359'>0.86382E+02</wgt>
<wgt id='2360'>0.86571E+02</wgt>
<wgt id='2361'>0.86398E+02</wgt>
<wgt id='2362'>0.86523E+02</wgt>
<wgt id='2363'>0.86382E+02</wgt>
<wgt id='2364'>0.86384E+02</wgt>
<wgt id='2365'>0.86344E+02</wgt>
<wgt id='2366'>0.86485E+02</wgt>
<wgt id='2367'>0.86256E+02</wgt>
<wgt id='2368'>0.86513E+02</wgt>
<wgt id='2369'>0.86403E+02</wgt>
<wgt id='2370'>0.86455E+02</wgt>
<wgt id='2371'>0.86378E+02</wgt>
<wgt id='2372'>0.86437E+02</wgt>
<wgt id='2373'>0.86415E+02</wgt>
<wgt id='2374'>0.86490E+02</wgt>
<wgt id='2375'>0.86472E+02</wgt>
<wgt id='2376'>0.86459E+02</wgt>
<wgt id='2377'>0.86479E+02</wgt>
<wgt id='2378'>0.86488E+02</wgt>
<wgt id='2379'>0.86406E+02</wgt>
<wgt id='2380'>0.86453E+02</wgt>
<wgt id='2381'>0.86425E+02</wgt>
<wgt id='2382'>0.86463E+02</wgt>
<wgt id='2383'>0.86342E+02</wgt>
<wgt id='2384'>0.86342E+02</wgt>
<wgt id='2385'>0.86547E+02</wgt>
<wgt id='2386'>0.86358E+02</wgt>
<wgt id='2387'>0.86371E+02</wgt>
<wgt id='2388'>0.86399E+02</wgt>
<wgt id='2389'>0.86431E+02</wgt>
<wgt id='2390'>0.86529E+02</wgt>
<wgt id='2391'>0.86486E+02</wgt>
<wgt id='2392'>0.86436E+02</wgt>
<wgt id='2393'>0.86449E+02</wgt>
<wgt id='2394'>0.86506E+02</wgt>
<wgt id='2395'>0.86444E+02</wgt>
<wgt id='2396'>0.86437E+02</wgt>
<wgt id='2397'>0.86429E+02</wgt>
<wgt id='2398'>0.86395E+02</wgt>
<wgt id='2399'>0.86441E+02</wgt>
<wgt id='2400'>0.86489E+02</wgt>
<wgt id='2401'>0.84274E+02</wgt>
<wgt id='2402'>0.89035E+02</wgt>
<wgt id='2500'>0.82453E+02</wgt>
<wgt id='2501'>0.87313E+02</wgt>
<wgt id='2600'>0.79114E+02</wgt>
<wgt id='2601'>0.78831E+02</wgt>
<wgt id='2602'>0.79278E+02</wgt>
<wgt id='2603'>0.79109E+02</wgt>
<wgt id='2604'>0.79212E+02</wgt>
<wgt id='2605'>0.79034E+02</wgt>
<wgt id='2606'>0.79204E+02</wgt>
<wgt id='2607'>0.79152E+02</wgt>
<wgt id='2608'>0.79263E+02</wgt>
<wgt id='2609'>0.79042E+02</wgt>
<wgt id='2610'>0.79056E+02</wgt>
<wgt id='2611'>0.79101E+02</wgt>
<wgt id='2612'>0.79078E+02</wgt>
<wgt id='2613'>0.79135E+02</wgt>
<wgt id='2614'>0.79033E+02</wgt>
<wgt id='2615'>0.78942E+02</wgt>
<wgt id='2616'>0.79175E+02</wgt>
<wgt id='2617'>0.78912E+02</wgt>
<wgt id='2618'>0.79136E+02</wgt>
<wgt id='2619'>0.79192E+02</wgt>
<wgt id='2620'>0.78944E+02</wgt>
<wgt id='2621'>0.79253E+02</wgt>
<wgt id='2622'>0.79494E+02</wgt>
<wgt id='2623'>0.79081E+02</wgt>
<wgt id='2624'>0.79063E+02</wgt>
<wgt id='2625'>0.79232E+02</wgt>
<wgt id='2626'>0.79154E+02</wgt>
<wgt id='2627'>0.79239E+02</wgt>
<wgt id='2628'>0.79074E+02</wgt>
<wgt id='2629'>0.79208E+02</wgt>
<wgt id='2630'>0.79331E+02</wgt>
<wgt id='2631'>0.78966E+02</wgt>
<wgt id='2632'>0.78967E+02</wgt>
<wgt id='2633'>0.79029E+02</wgt>
<wgt id='2634'>0.78949E+02</wgt>
<wgt id='2635'>0.78978E+02</wgt>
<wgt id='2636'>0.79167E+02</wgt>
<wgt id='2637'>0.79121E+02</wgt>
<wgt id='2638'>0.79066E+02</wgt>
<wgt id='2639'>0.79132E+02</wgt>
<wgt id='2640'>0.79092E+02</wgt>
<wgt id='2641'>0.79078E+02</wgt>
<wgt id='2642'>0.79116E+02</wgt>
<wgt id='2643'>0.79041E+02</wgt>
<wgt id='2644'>0.79112E+02</wgt>
<wgt id='2645'>0.79086E+02</wgt>
<wgt id='2646'>0.79169E+02</wgt>
<wgt id='2647'>0.79088E+02</wgt>
<wgt id='2648'>0.79092E+02</wgt>
<wgt id='2649'>0.79114E+02</wgt>
<wgt id='2650'>0.79132E+02</wgt>
<wgt id='2651'>0.77695E+02</wgt>
<wgt id='2652'>0.80194E+02</wgt>
<wgt id='2700'>0.76528E+02</wgt>
<wgt id='2701'>0.77695E+02</wgt>
<wgt id='2702'>0.78466E+02</wgt>
<wgt id='2703'>0.79766E+02</wgt>
<wgt id='2704'>0.80194E+02</wgt>
<wgt id='2705'>0.81641E+02</wgt>
<wgt id='2800'>0.81090E+02</wgt>
<wgt id='4000'>0.82871E+02</wgt>
<wgt id='4001'>0.83063E+02</wgt>
<wgt id='4002'>0.82856E+02</wgt>
<wgt id='4003'>0.82137E+02</wgt>
<wgt id='4004'>0.83716E+02</wgt>
<wgt id='4005'>0.83144E+02</wgt>
<wgt id='4006'>0.82783E+02</wgt>
<wgt id='4007'>0.83282E+02</wgt>
<wgt id='4008'>0.82522E+02</wgt>
<wgt id='4009'>0.82334E+02</wgt>
<wgt id='4010'>0.83047E+02</wgt>
<wgt id='4011'>0.83447E+02</wgt>
<wgt id='4012'>0.82175E+02</wgt>
<wgt id='4013'>0.82896E+02</wgt>
<wgt id='4014'>0.82967E+02</wgt>
<wgt id='4015'>0.82990E+02</wgt>
<wgt id='4016'>0.83723E+02</wgt>
<wgt id='4017'>0.82935E+02</wgt>
<wgt id='4018'>0.82821E+02</wgt>
<wgt id='4019'>0.82805E+02</wgt>
<wgt id='4020'>0.83066E+02</wgt>
<wgt id='4021'>0.83107E+02</wgt>
<wgt id='4022'>0.82458E+02</wgt>
<wgt id='4023'>0.83282E+02</wgt>
<wgt id='4024'>0.83142E+02</wgt>
<wgt id='4025'>0.82803E+02</wgt>
<wgt id='4026'>0.83191E+02</wgt>
<wgt id='4027'>0.83622E+02</wgt>
<wgt id='4028'>0.82228E+02</wgt>
<wgt id='4029'>0.84039E+02</wgt>
<wgt id='4030'>0.81758E+02</wgt>
<wgt id='4031'>0.82715E+02</wgt>
<wgt id='4032'>0.84272E+02</wgt>
<wgt id='4033'>0.83607E+02</wgt>
<wgt id='4034'>0.82157E+02</wgt>
<wgt id='4035'>0.83163E+02</wgt>
<wgt id='4036'>0.82629E+02</wgt>
<wgt id='4037'>0.85428E+02</wgt>
<wgt id='4038'>0.80956E+02</wgt>
<wgt id='4039'>0.84578E+02</wgt>
<wgt id='4040'>0.81314E+02</wgt>
<wgt id='4041'>0.83458E+02</wgt>
<wgt id='4042'>0.82244E+02</wgt>
<wgt id='4043'>0.82972E+02</wgt>
<wgt id='4044'>0.81989E+02</wgt>
<wgt id='4045'>0.82923E+02</wgt>
<wgt id='4046'>0.82837E+02</wgt>
<wgt id='4047'>0.83324E+02</wgt>
<wgt id='4048'>0.82924E+02</wgt>
<wgt id='4049'>0.82992E+02</wgt>
<wgt id='4050'>0.82800E+02</wgt>
<wgt id='4051'>0.83116E+02</wgt>
<wgt id='4052'>0.82882E+02</wgt>
<wgt id='4053'>0.82558E+02</wgt>
<wgt id='4054'>0.82577E+02</wgt>
<wgt id='4055'>0.83251E+02</wgt>
<wgt id='4056'>0.82467E+02</wgt>
<wgt id='4057'>0.82242E+02</wgt>
<wgt id='4058'>0.83308E+02</wgt>
<wgt id='4100'>0.83329E+02</wgt>
<wgt id='4101'>0.83062E+02</wgt>
<wgt id='4102'>0.82738E+02</wgt>
<wgt id='4103'>0.82641E+02</wgt>
<wgt id='4200'>0.81371E+02</wgt>
<wgt id='4201'>0.81267E+02</wgt>
<wgt id='4202'>0.81598E+02</wgt>
<wgt id='4203'>0.81044E+02</wgt>
<wgt id='4204'>0.81495E+02</wgt>
<wgt id='4205'>0.81339E+02</wgt>
<wgt id='4206'>0.81573E+02</wgt>
<wgt id='4207'>0.81997E+02</wgt>
<wgt id='4208'>0.80961E+02</wgt>
<wgt id='4209'>0.81050E+02</wgt>
<wgt id='4210'>0.81597E+02</wgt>
<wgt id='4211'>0.81911E+02</wgt>
<wgt id='4212'>0.80942E+02</wgt>
<wgt id='4213'>0.81512E+02</wgt>
<wgt id='4214'>0.81123E+02</wgt>
<wgt id='4215'>0.81299E+02</wgt>
<wgt id='4216'>0.81628E+02</wgt>
<wgt id='4217'>0.81366E+02</wgt>
<wgt id='4218'>0.81315E+02</wgt>
<wgt id='4219'>0.81132E+02</wgt>
<wgt id='4220'>0.81638E+02</wgt>
<wgt id='4221'>0.80983E+02</wgt>
<wgt id='4222'>0.82004E+02</wgt>
<wgt id='4223'>0.80394E+02</wgt>
<wgt id='4224'>0.81348E+02</wgt>
<wgt id='4225'>0.80642E+02</wgt>
<wgt id='4226'>0.82372E+02</wgt>
<wgt id='4227'>0.81966E+02</wgt>
<wgt id='4228'>0.80863E+02</wgt>
<wgt id='4229'>0.80044E+02</wgt>
<wgt id='4230'>0.82477E+02</wgt>
<wgt id='4231'>0.81618E+02</wgt>
<wgt id='4232'>0.80933E+02</wgt>
<wgt id='4233'>0.81440E+02</wgt>
<wgt id='4234'>0.80780E+02</wgt>
<wgt id='4235'>0.82216E+02</wgt>
<wgt id='4236'>0.80488E+02</wgt>
<wgt id='4237'>0.82701E+02</wgt>
<wgt id='4238'>0.79505E+02</wgt>
<wgt id='4239'>0.80875E+02</wgt>
<wgt id='4240'>0.81483E+02</wgt>
<wgt id='4241'>0.81475E+02</wgt>
<wgt id='4242'>0.81230E+02</wgt>
<wgt id='4243'>0.81714E+02</wgt>
<wgt id='4244'>0.81101E+02</wgt>
<wgt id='4245'>0.81404E+02</wgt>
<wgt id='4246'>0.81003E+02</wgt>
<wgt id='4247'>0.80739E+02</wgt>
<wgt id='4248'>0.81693E+02</wgt>
<wgt id='4249'>0.82313E+02</wgt>
<wgt id='4250'>0.80229E+02</wgt>
<wgt id='4251'>0.82147E+02</wgt>
<wgt id='4252'>0.80812E+02</wgt>
<wgt id='4253'>0.81690E+02</wgt>
<wgt id='4254'>0.80776E+02</wgt>
<wgt id='4255'>0.82823E+02</wgt>
<wgt id='4256'>0.80600E+02</wgt>
<wgt id='4257'>0.79982E+02</wgt>
<wgt id='4258'>0.81776E+02</wgt>
<wgt id='4300'>0.81930E+02</wgt>
<wgt id='4301'>0.82945E+02</wgt>
<wgt id='5000'>0.82833E+02</wgt>
<wgt id='5001'>0.82876E+02</wgt>
<wgt id='5002'>0.82778E+02</wgt>
<wgt id='5003'>0.82850E+02</wgt>
<wgt id='5004'>0.82817E+02</wgt>
<wgt id='5005'>0.82842E+02</wgt>
<wgt id='5006'>0.82818E+02</wgt>
<wgt id='5007'>0.82929E+02</wgt>
<wgt id='5008'>0.82755E+02</wgt>
<wgt id='5009'>0.82921E+02</wgt>
<wgt id='5010'>0.82742E+02</wgt>
<wgt id='5011'>0.83084E+02</wgt>
<wgt id='5012'>0.82591E+02</wgt>
<wgt id='5013'>0.82919E+02</wgt>
<wgt id='5014'>0.82772E+02</wgt>
<wgt id='5015'>0.82438E+02</wgt>
<wgt id='5016'>0.82438E+02</wgt>
<wgt id='5017'>0.83195E+02</wgt>
<wgt id='5018'>0.82589E+02</wgt>
<wgt id='5019'>0.83138E+02</wgt>
<wgt id='5020'>0.82416E+02</wgt>
<wgt id='5021'>0.82939E+02</wgt>
<wgt id='5022'>0.82665E+02</wgt>
<wgt id='5023'>0.82767E+02</wgt>
<wgt id='5024'>0.82992E+02</wgt>
<wgt id='5025'>0.82594E+02</wgt>
<wgt id='5026'>0.83100E+02</wgt>
<wgt id='5027'>0.82888E+02</wgt>
<wgt id='5028'>0.82686E+02</wgt>
<wgt id='5029'>0.83795E+02</wgt>
<wgt id='5030'>0.82291E+02</wgt>
<wgt id='5031'>0.82289E+02</wgt>
<wgt id='5032'>0.84492E+02</wgt>
<wgt id='5033'>0.82768E+02</wgt>
<wgt id='5034'>0.82903E+02</wgt>
<wgt id='5035'>0.82843E+02</wgt>
<wgt id='5036'>0.82822E+02</wgt>
<wgt id='5037'>0.82574E+02</wgt>
<wgt id='5038'>0.82980E+02</wgt>
<wgt id='5039'>0.83009E+02</wgt>
<wgt id='5040'>0.82402E+02</wgt>
<wgt id='5041'>0.82534E+02</wgt>
<wgt id='5042'>0.83143E+02</wgt>
<wgt id='5043'>0.83003E+02</wgt>
<wgt id='5044'>0.82727E+02</wgt>
<wgt id='5045'>0.83076E+02</wgt>
<wgt id='5046'>0.82374E+02</wgt>
<wgt id='5047'>0.82925E+02</wgt>
<wgt id='5048'>0.82437E+02</wgt>
<wgt id='5049'>0.82737E+02</wgt>
<wgt id='5050'>0.83071E+02</wgt>
<wgt id='5051'>0.83082E+02</wgt>
<wgt id='5052'>0.82660E+02</wgt>
<wgt id='5053'>0.83008E+02</wgt>
<wgt id='5054'>0.83006E+02</wgt>
<wgt id='5055'>0.82883E+02</wgt>
<wgt id='5056'>0.82912E+02</wgt>
<wgt id='5057'>0.82474E+02</wgt>
<wgt id='5058'>0.83085E+02</wgt>
<wgt id='5059'>0.82696E+02</wgt>
<wgt id='5060'>0.82918E+02</wgt>
<wgt id='5061'>0.83073E+02</wgt>
<wgt id='5062'>0.83070E+02</wgt>
<wgt id='5063'>0.83112E+02</wgt>
<wgt id='5064'>0.82934E+02</wgt>
<wgt id='5100'>0.82833E+02</wgt>
<wgt id='5101'>0.82821E+02</wgt>
<wgt id='6000'>0.81968E+02</wgt>
<wgt id='6001'>0.81509E+02</wgt>
<wgt id='6002'>0.81362E+02</wgt>
<wgt id='6003'>0.81705E+02</wgt>
<wgt id='6004'>0.82306E+02</wgt>
<wgt id='6005'>0.81415E+02</wgt>
<wgt id='6006'>0.81933E+02</wgt>
<wgt id='6007'>0.81381E+02</wgt>
<wgt id='6008'>0.82300E+02</wgt>
<wgt id='6009'>0.81749E+02</wgt>
<wgt id='6010'>0.82085E+02</wgt>
<wgt id='6011'>0.81964E+02</wgt>
<wgt id='6012'>0.82150E+02</wgt>
<wgt id='6013'>0.81494E+02</wgt>
<wgt id='6014'>0.81614E+02</wgt>
<wgt id='6015'>0.81318E+02</wgt>
<wgt id='6016'>0.82424E+02</wgt>
<wgt id='6017'>0.81523E+02</wgt>
<wgt id='6018'>0.81334E+02</wgt>
<wgt id='6019'>0.82025E+02</wgt>
<wgt id='6020'>0.82174E+02</wgt>
<wgt id='6021'>0.81819E+02</wgt>
<wgt id='6022'>0.82144E+02</wgt>
<wgt id='6023'>0.81895E+02</wgt>
<wgt id='6024'>0.82057E+02</wgt>
<wgt id='6025'>0.82533E+02</wgt>
<wgt id='6026'>0.81800E+02</wgt>
<wgt id='6027'>0.82002E+02</wgt>
<wgt id='6028'>0.81517E+02</wgt>
<wgt id='6029'>0.81736E+02</wgt>
<wgt id='6030'>0.81351E+02</wgt>
<wgt id='6031'>0.81690E+02</wgt>
<wgt id='6032'>0.81924E+02</wgt>
<wgt id='6033'>0.81850E+02</wgt>
<wgt id='6034'>0.82349E+02</wgt>
<wgt id='6035'>0.82029E+02</wgt>
<wgt id='6036'>0.82906E+02</wgt>
<wgt id='6037'>0.81955E+02</wgt>
<wgt id='6038'>0.81874E+02</wgt>
<wgt id='6039'>0.82193E+02</wgt>
<wgt id='6040'>0.81965E+02</wgt>
<wgt id='6041'>0.80441E+02</wgt>
<wgt id='6042'>0.82915E+02</wgt>
<wgt id='7000'>0.80968E+02</wgt>
<wgt id='7001'>0.80307E+02</wgt>
<wgt id='7002'>0.80467E+02</wgt>
<wgt id='7003'>0.80398E+02</wgt>
<wgt id='7004'>0.80376E+02</wgt>
<wgt id='7005'>0.80469E+02</wgt>
<wgt id='7006'>0.80305E+02</wgt>
<wgt id='7007'>0.80833E+02</wgt>
<wgt id='7008'>0.79952E+02</wgt>
<wgt id='7009'>0.80039E+02</wgt>
<wgt id='7010'>0.80746E+02</wgt>
<wgt id='7011'>0.80664E+02</wgt>
<wgt id='7012'>0.80118E+02</wgt>
<wgt id='7013'>0.80319E+02</wgt>
<wgt id='7014'>0.80451E+02</wgt>
<wgt id='7015'>0.80551E+02</wgt>
<wgt id='7016'>0.80087E+02</wgt>
<wgt id='7017'>0.80257E+02</wgt>
<wgt id='7018'>0.80522E+02</wgt>
<wgt id='7019'>0.80700E+02</wgt>
<wgt id='7020'>0.80089E+02</wgt>
<wgt id='7021'>0.81401E+02</wgt>
<wgt id='7022'>0.79392E+02</wgt>
<wgt id='7023'>0.79347E+02</wgt>
<wgt id='7024'>0.81430E+02</wgt>
<wgt id='7025'>0.78888E+02</wgt>
<wgt id='7026'>0.81804E+02</wgt>
<wgt id='7027'>0.79741E+02</wgt>
<wgt id='7028'>0.81115E+02</wgt>
<wgt id='8000'>0.81638E+02</wgt>
<wgt id='8001'>0.81627E+02</wgt>
<wgt id='8002'>0.81663E+02</wgt>
<wgt id='8003'>0.81639E+02</wgt>
<wgt id='8004'>0.81636E+02</wgt>
<wgt id='8005'>0.81476E+02</wgt>
<wgt id='8006'>0.81726E+02</wgt>
<wgt id='8007'>0.81784E+02</wgt>
<wgt id='8008'>0.81813E+02</wgt>
<wgt id='8009'>0.81983E+02</wgt>
<wgt id='8010'>0.81551E+02</wgt>
<wgt id='8011'>0.81667E+02</wgt>
<wgt id='8012'>0.81361E+02</wgt>
<wgt id='8013'>0.81478E+02</wgt>
<wgt id='8014'>0.81832E+02</wgt>
<wgt id='8015'>0.81583E+02</wgt>
<wgt id='8016'>0.81758E+02</wgt>
<wgt id='8017'>0.81754E+02</wgt>
<wgt id='8018'>0.81928E+02</wgt>
<wgt id='8019'>0.81495E+02</wgt>
<wgt id='8020'>0.81906E+02</wgt>
<wgt id='8021'>0.81487E+02</wgt>
<wgt id='8022'>0.82121E+02</wgt>
<wgt id='8023'>0.81355E+02</wgt>
<wgt id='8024'>0.81089E+02</wgt>
<wgt id='8025'>0.81242E+02</wgt>
<wgt id='8026'>0.81648E+02</wgt>
<wgt id='8027'>0.81776E+02</wgt>
<wgt id='8028'>0.81668E+02</wgt>
<wgt id='8029'>0.83027E+02</wgt>
<wgt id='3000'>0.81104E+02</wgt>
<wgt id='3001'>0.82111E+02</wgt>
<wgt id='3002'>0.80852E+02</wgt>
<wgt id='3003'>0.82771E+02</wgt>
<wgt id='3004'>0.81914E+02</wgt>
<wgt id='3005'>0.82562E+02</wgt>
<wgt id='3006'>0.81044E+02</wgt>
<wgt id='3007'>0.79024E+02</wgt>
<wgt id='3008'>0.78972E+02</wgt>
<wgt id='3009'>0.80264E+02</wgt>
<wgt id='3010'>0.84854E+02</wgt>
<wgt id='3011'>0.82132E+02</wgt>
<wgt id='3012'>0.79215E+02</wgt>
<wgt id='3013'>0.80154E+02</wgt>
<wgt id='3014'>0.80526E+02</wgt>
<wgt id='3015'>0.78485E+02</wgt>
<wgt id='3016'>0.80658E+02</wgt>
<wgt id='3017'>0.81533E+02</wgt>
<wgt id='3018'>0.79872E+02</wgt>
<wgt id='3019'>0.80156E+02</wgt>
<wgt id='3020'>0.80613E+02</wgt>
<wgt id='3021'>0.78938E+02</wgt>
<wgt id='3022'>0.79531E+02</wgt>
<wgt id='3023'>0.79822E+02</wgt>
<wgt id='3024'>0.81403E+02</wgt>
<wgt id='3025'>0.79582E+02</wgt>
<wgt id='3026'>0.80210E+02</wgt>
<wgt id='3027'>0.82753E+02</wgt>
<wgt id='3028'>0.78653E+02</wgt>
<wgt id='3029'>0.81040E+02</wgt>
<wgt id='3030'>0.80074E+02</wgt>
<wgt id='3031'>0.82855E+02</wgt>
<wgt id='3032'>0.78259E+02</wgt>
<wgt id='3033'>0.79733E+02</wgt>
<wgt id='3034'>0.82380E+02</wgt>
<wgt id='3035'>0.83506E+02</wgt>
<wgt id='3036'>0.81223E+02</wgt>
<wgt id='3037'>0.80598E+02</wgt>
<wgt id='3038'>0.82013E+02</wgt>
<wgt id='3039'>0.79517E+02</wgt>
<wgt id='3040'>0.80894E+02</wgt>
<wgt id='3041'>0.81691E+02</wgt>
<wgt id='3042'>0.81563E+02</wgt>
<wgt id='3043'>0.82559E+02</wgt>
<wgt id='3044'>0.82292E+02</wgt>
<wgt id='3045'>0.81587E+02</wgt>
<wgt id='3046'>0.81078E+02</wgt>
<wgt id='3047'>0.81843E+02</wgt>
<wgt id='3048'>0.82651E+02</wgt>
<wgt id='3049'>0.80414E+02</wgt>
<wgt id='3050'>0.83036E+02</wgt>
<wgt id='3051'>0.79758E+02</wgt>
<wgt id='3052'>0.80008E+02</wgt>
<wgt id='3053'>0.82482E+02</wgt>
<wgt id='3054'>0.78944E+02</wgt>
<wgt id='3055'>0.81779E+02</wgt>
<wgt id='3056'>0.80769E+02</wgt>
<wgt id='3057'>0.79732E+02</wgt>
<wgt id='3058'>0.82892E+02</wgt>
<wgt id='3059'>0.79921E+02</wgt>
<wgt id='3060'>0.80145E+02</wgt>
<wgt id='3061'>0.80030E+02</wgt>
<wgt id='3062'>0.82010E+02</wgt>
<wgt id='3063'>0.81962E+02</wgt>
<wgt id='3064'>0.82824E+02</wgt>
<wgt id='3065'>0.79158E+02</wgt>
<wgt id='3066'>0.83010E+02</wgt>
<wgt id='3067'>0.80807E+02</wgt>
<wgt id='3068'>0.79973E+02</wgt>
<wgt id='3069'>0.80350E+02</wgt>
<wgt id='3070'>0.82054E+02</wgt>
<wgt id='3071'>0.80860E+02</wgt>
<wgt id='3072'>0.81661E+02</wgt>
<wgt id='3073'>0.80844E+02</wgt>
<wgt id='3074'>0.80085E+02</wgt>
<wgt id='3075'>0.81517E+02</wgt>
<wgt id='3076'>0.83274E+02</wgt>
<wgt id='3077'>0.82413E+02</wgt>
<wgt id='3078'>0.79282E+02</wgt>
<wgt id='3079'>0.81123E+02</wgt>
<wgt id='3080'>0.84308E+02</wgt>
<wgt id='3081'>0.82296E+02</wgt>
<wgt id='3082'>0.80658E+02</wgt>
<wgt id='3083'>0.81361E+02</wgt>
<wgt id='3084'>0.80106E+02</wgt>
<wgt id='3085'>0.81044E+02</wgt>
<wgt id='3086'>0.83034E+02</wgt>
<wgt id='3087'>0.80141E+02</wgt>
<wgt id='3088'>0.81499E+02</wgt>
<wgt id='3089'>0.83906E+02</wgt>
<wgt id='3090'>0.80823E+02</wgt>
<wgt id='3091'>0.80842E+02</wgt>
<wgt id='3092'>0.81412E+02</wgt>
<wgt id='3093'>0.81282E+02</wgt>
<wgt id='3094'>0.81988E+02</wgt>
<wgt id='3095'>0.78613E+02</wgt>
<wgt id='3096'>0.80601E+02</wgt>
<wgt id='3097'>0.85351E+02</wgt>
<wgt id='3098'>0.81187E+02</wgt>
<wgt id='3099'>0.79753E+02</wgt>
<wgt id='3100'>0.80643E+02</wgt>
<wgt id='3200'>0.79224E+02</wgt>
<wgt id='3201'>0.78662E+02</wgt>
<wgt id='3202'>0.77127E+02</wgt>
<wgt id='3203'>0.79565E+02</wgt>
<wgt id='3204'>0.78669E+02</wgt>
<wgt id='3205'>0.79326E+02</wgt>
<wgt id='3206'>0.80690E+02</wgt>
<wgt id='3207'>0.80188E+02</wgt>
<wgt id='3208'>0.79312E+02</wgt>
<wgt id='3209'>0.79078E+02</wgt>
<wgt id='3210'>0.79412E+02</wgt>
<wgt id='3211'>0.79426E+02</wgt>
<wgt id='3212'>0.79591E+02</wgt>
<wgt id='3213'>0.79949E+02</wgt>
<wgt id='3214'>0.78898E+02</wgt>
<wgt id='3215'>0.79322E+02</wgt>
<wgt id='3216'>0.79753E+02</wgt>
<wgt id='3217'>0.79805E+02</wgt>
<wgt id='3218'>0.80621E+02</wgt>
<wgt id='3219'>0.79219E+02</wgt>
<wgt id='3220'>0.78267E+02</wgt>
<wgt id='3221'>0.78940E+02</wgt>
<wgt id='3222'>0.79974E+02</wgt>
<wgt id='3223'>0.80347E+02</wgt>
<wgt id='3224'>0.78949E+02</wgt>
<wgt id='3225'>0.80224E+02</wgt>
<wgt id='3226'>0.78014E+02</wgt>
<wgt id='3227'>0.78165E+02</wgt>
<wgt id='3228'>0.78710E+02</wgt>
<wgt id='3229'>0.80361E+02</wgt>
<wgt id='3230'>0.79222E+02</wgt>
<wgt id='3231'>0.79406E+02</wgt>
<wgt id='3232'>0.79506E+02</wgt>
<wgt id='3233'>0.79240E+02</wgt>
<wgt id='3234'>0.77812E+02</wgt>
<wgt id='3235'>0.79440E+02</wgt>
<wgt id='3236'>0.79724E+02</wgt>
<wgt id='3237'>0.79639E+02</wgt>
<wgt id='3238'>0.78296E+02</wgt>
<wgt id='3239'>0.78749E+02</wgt>
<wgt id='3240'>0.77802E+02</wgt>
<wgt id='3241'>0.80086E+02</wgt>
<wgt id='3242'>0.79393E+02</wgt>
<wgt id='3243'>0.79969E+02</wgt>
<wgt id='3244'>0.79707E+02</wgt>
<wgt id='3245'>0.79804E+02</wgt>
<wgt id='3246'>0.77419E+02</wgt>
<wgt id='3247'>0.78166E+02</wgt>
<wgt id='3248'>0.78929E+02</wgt>
<wgt id='3249'>0.78013E+02</wgt>
<wgt id='3250'>0.79296E+02</wgt>
<wgt id='3251'>0.78754E+02</wgt>
<wgt id='3252'>0.80175E+02</wgt>
<wgt id='3253'>0.79388E+02</wgt>
<wgt id='3254'>0.79137E+02</wgt>
<wgt id='3255'>0.78007E+02</wgt>
<wgt id='3256'>0.79426E+02</wgt>
<wgt id='3257'>0.79203E+02</wgt>
<wgt id='3258'>0.78232E+02</wgt>
<wgt id='3259'>0.77783E+02</wgt>
<wgt id='3260'>0.79016E+02</wgt>
<wgt id='3261'>0.78022E+02</wgt>
<wgt id='3262'>0.80633E+02</wgt>
<wgt id='3263'>0.79867E+02</wgt>
<wgt id='3264'>0.79435E+02</wgt>
<wgt id='3265'>0.80037E+02</wgt>
<wgt id='3266'>0.79639E+02</wgt>
<wgt id='3267'>0.79252E+02</wgt>
<wgt id='3268'>0.78175E+02</wgt>
<wgt id='3269'>0.78952E+02</wgt>
<wgt id='3270'>0.81086E+02</wgt>
<wgt id='3271'>0.79188E+02</wgt>
<wgt id='3272'>0.79259E+02</wgt>
<wgt id='3273'>0.79256E+02</wgt>
<wgt id='3274'>0.78307E+02</wgt>
<wgt id='3275'>0.80159E+02</wgt>
<wgt id='3276'>0.78392E+02</wgt>
<wgt id='3277'>0.79405E+02</wgt>
<wgt id='3278'>0.80166E+02</wgt>
<wgt id='3279'>0.79473E+02</wgt>
<wgt id='3280'>0.79159E+02</wgt>
<wgt id='3281'>0.79848E+02</wgt>
<wgt id='3282'>0.79447E+02</wgt>
<wgt id='3283'>0.79382E+02</wgt>
<wgt id='3284'>0.78517E+02</wgt>
<wgt id='3285'>0.79465E+02</wgt>
<wgt id='3286'>0.77956E+02</wgt>
<wgt id='3287'>0.81393E+02</wgt>
<wgt id='3288'>0.78354E+02</wgt>
<wgt id='3289'>0.80227E+02</wgt>
<wgt id='3290'>0.77814E+02</wgt>
<wgt id='3291'>0.78609E+02</wgt>
<wgt id='3292'>0.79395E+02</wgt>
<wgt id='3293'>0.79028E+02</wgt>
<wgt id='3294'>0.79543E+02</wgt>
<wgt id='3295'>0.79257E+02</wgt>
<wgt id='3296'>0.79589E+02</wgt>
<wgt id='3297'>0.79483E+02</wgt>
<wgt id='3298'>0.77982E+02</wgt>
<wgt id='3299'>0.79817E+02</wgt>
<wgt id='3300'>0.80059E+02</wgt>
<wgt id='3301'>0.77695E+02</wgt>
<wgt id='3302'>0.80194E+02</wgt>
<wgt id='3400'>0.78188E+02</wgt>
<wgt id='3401'>0.78509E+02</wgt>
<wgt id='3402'>0.76427E+02</wgt>
<wgt id='3403'>0.78832E+02</wgt>
<wgt id='3404'>0.79528E+02</wgt>
<wgt id='3405'>0.78476E+02</wgt>
<wgt id='3406'>0.79761E+02</wgt>
<wgt id='3407'>0.78378E+02</wgt>
<wgt id='3408'>0.78661E+02</wgt>
<wgt id='3409'>0.78442E+02</wgt>
<wgt id='3410'>0.78887E+02</wgt>
<wgt id='3411'>0.79816E+02</wgt>
<wgt id='3412'>0.78989E+02</wgt>
<wgt id='3413'>0.77869E+02</wgt>
<wgt id='3414'>0.77593E+02</wgt>
<wgt id='3415'>0.78094E+02</wgt>
<wgt id='3416'>0.77747E+02</wgt>
<wgt id='3417'>0.78916E+02</wgt>
<wgt id='3418'>0.77431E+02</wgt>
<wgt id='3419'>0.77561E+02</wgt>
<wgt id='3420'>0.77728E+02</wgt>
<wgt id='3421'>0.77424E+02</wgt>
<wgt id='3422'>0.77645E+02</wgt>
<wgt id='3423'>0.79329E+02</wgt>
<wgt id='3424'>0.78628E+02</wgt>
<wgt id='3425'>0.77417E+02</wgt>
<wgt id='3426'>0.77392E+02</wgt>
<wgt id='3427'>0.76774E+02</wgt>
<wgt id='3428'>0.78492E+02</wgt>
<wgt id='3429'>0.77305E+02</wgt>
<wgt id='3430'>0.77634E+02</wgt>
<wgt id='3431'>0.78612E+02</wgt>
<wgt id='3432'>0.79526E+02</wgt>
<wgt id='3433'>0.78062E+02</wgt>
<wgt id='3434'>0.79437E+02</wgt>
<wgt id='3435'>0.79203E+02</wgt>
<wgt id='3436'>0.77929E+02</wgt>
<wgt id='3437'>0.79650E+02</wgt>
<wgt id='3438'>0.77652E+02</wgt>
<wgt id='3439'>0.76149E+02</wgt>
<wgt id='3440'>0.78577E+02</wgt>
<wgt id='3441'>0.78352E+02</wgt>
<wgt id='3442'>0.77608E+02</wgt>
<wgt id='3443'>0.78958E+02</wgt>
<wgt id='3444'>0.77150E+02</wgt>
<wgt id='3445'>0.77564E+02</wgt>
<wgt id='3446'>0.78370E+02</wgt>
<wgt id='3447'>0.77924E+02</wgt>
<wgt id='3448'>0.80000E+02</wgt>
<wgt id='3449'>0.78577E+02</wgt>
<wgt id='3450'>0.77598E+02</wgt>
<wgt id='3451'>0.78984E+02</wgt>
<wgt id='3452'>0.77733E+02</wgt>
<wgt id='3453'>0.76673E+02</wgt>
<wgt id='3454'>0.78402E+02</wgt>
<wgt id='3455'>0.78808E+02</wgt>
<wgt id='3456'>0.78372E+02</wgt>
<wgt id='3457'>0.78294E+02</wgt>
<wgt id='3458'>0.77591E+02</wgt>
<wgt id='3459'>0.78166E+02</wgt>
<wgt id='3460'>0.77986E+02</wgt>
<wgt id='3461'>0.77150E+02</wgt>
<wgt id='3462'>0.78646E+02</wgt>
<wgt id='3463'>0.77073E+02</wgt>
<wgt id='3464'>0.78264E+02</wgt>
<wgt id='3465'>0.79166E+02</wgt>
<wgt id='3466'>0.78906E+02</wgt>
<wgt id='3467'>0.77918E+02</wgt>
<wgt id='3468'>0.77501E+02</wgt>
<wgt id='3469'>0.77020E+02</wgt>
<wgt id='3470'>0.77434E+02</wgt>
<wgt id='3471'>0.77634E+02</wgt>
<wgt id='3472'>0.76313E+02</wgt>
<wgt id='3473'>0.80106E+02</wgt>
<wgt id='3474'>0.77332E+02</wgt>
<wgt id='3475'>0.78907E+02</wgt>
<wgt id='3476'>0.77928E+02</wgt>
<wgt id='3477'>0.77080E+02</wgt>
<wgt id='3478'>0.79457E+02</wgt>
<wgt id='3479'>0.77889E+02</wgt>
<wgt id='3480'>0.79020E+02</wgt>
<wgt id='3481'>0.79221E+02</wgt>
<wgt id='3482'>0.78601E+02</wgt>
<wgt id='3483'>0.78289E+02</wgt>
<wgt id='3484'>0.77202E+02</wgt>
<wgt id='3485'>0.77448E+02</wgt>
<wgt id='3486'>0.75985E+02</wgt>
<wgt id='3487'>0.77127E+02</wgt>
<wgt id='3488'>0.78006E+02</wgt>
<wgt id='3489'>0.77041E+02</wgt>
<wgt id='3490'>0.79030E+02</wgt>
<wgt id='3491'>0.80296E+02</wgt>
<wgt id='3492'>0.77598E+02</wgt>
<wgt id='3493'>0.80057E+02</wgt>
<wgt id='3494'>0.76483E+02</wgt>
<wgt id='3495'>0.79189E+02</wgt>
<wgt id='3496'>0.77373E+02</wgt>
<wgt id='3497'>0.78042E+02</wgt>
<wgt id='3498'>0.79765E+02</wgt>
<wgt id='3499'>0.77656E+02</wgt>
<wgt id='3500'>0.80056E+02</wgt>
</rwgt>
</event>
<event>
     13 322200  8.11039E+01  1.40794E+01 -1.00000E+00  1.76612E-01
      21    -1     0     0   504   505  0.000000000E+00  0.000000000E+00  2.409504987E+02  2.409504987E+02  0.000000000E+00  0.00000E+00  9.000E+00
      21    -1     0     0   502   503  0.000000000E+00  0.000000000E+00 -3.575762153E+02  3.575762153E+02  0.000000000E+00  0.00000E+00  9.000E+00
       6     2     1     2   502     0 -1.261092258E+01  9.196147885E+01 -2.490205584E+02  3.170235178E+02  1.728488454E+02  0.00000E+00  9.000E+00
      -6     2     1     2     0   505  9.738713998E+00 -7.817816934E+01  1.612794472E+02  2.493698859E+02  1.731115572E+02  0.00000E+00  9.000E+00
      21     1     1     2   504   503  2.872208579E+00 -1.378330951E+01 -2.888460529E+01  3.213331022E+01  3.371747881E-07  0.00000E+00  9.000E+00
      24     2     3     3     0     0  2.373801775E+01  1.114060252E+02 -1.286874909E+02  1.897247095E+02  8.037536410E+01  0.00000E+00  9.000E+00
       5     1     3     3   502     0 -3.634894033E+01 -1.944454636E+01 -1.203330676E+02  1.272988083E+02  5.060000000E+00  0.00000E+00 -1.000E+00
     -24     2     4     4     0     0  4.306228868E+01  7.609449484E+00  1.117486137E+02  1.447329745E+02  8.091734560E+01  0.00000E+00  9.000E+00
      -5     1     4     4     0   505 -3.332357468E+01 -8.578761882E+01  4.953083350E+01  1.046369115E+02  5.060000000E+00  0.00000E+00  1.000E+00
     -13     1     6     6     0     0 -4.937843392E+00  9.406769810E+01 -1.242525289E+02  1.559224686E+02  1.057000000E-01  0.00000E+00  1.000E+00
      14     1     6     6     0     0  2.867586115E+01  1.733832711E+01 -4.434961980E+00  3.380224086E+01  0.000000000E+00  0.00000E+00 -1.000E+00
      11     1     8     8     0     0 -1.105351492E+01 -2.601532029E+01  3.431477454E+01  4.445762965E+01  5.100000000E-04  0.00000E+00 -1.000E+00
     -12     1     8     8     0     0  5.411580360E+01  3.362476977E+01  7.743383912E+01  1.002753448E+02  0.000000000E+00  0.00000E+00  1.000E+00
#rwgt            1           1   591.13022148494031               10       32105           0
<rwgt>
<wgt id='1001'>0.81104E+02</wgt>
<wgt id='1002'>0.70116E+02</wgt>
<wgt id='1003'>0.93310E+02</wgt>
<wgt id='1004'>0.74264E+02</wgt>
<wgt id='1005'>0.65033E+02</wgt>
<wgt id='1006'>0.84478E+02</wgt>
<wgt id='1007'>0.87568E+02</wgt>
<wgt id='1008'>0.74252E+02</wgt>
<wgt id='1009'>0.10243E+03</wgt>
<wgt id='2000'>0.81104E+02</wgt>
<wgt id='2001'>0.81230E+02</wgt>
<wgt id='2002'>0.80890E+02</wgt>
<wgt id='2003'>0.80994E+02</wgt>
<wgt id='2004'>0.81262E+02</wgt>
<wgt id='2005'>0.81198E+02</wgt>
<wgt id='2006'>0.81301E+02</wgt>
<wgt id='2007'>0.81223E+02</wgt>
<wgt id='2008'>0.81471E+02</wgt>
<wgt id='2009'>0.81004E+02</wgt>
<wgt id='2010'>0.81100E+02</wgt>
<wgt id='2011'>0.80823E+02</wgt>
<wgt id='2012'>0.81248E+02</wgt>
<wgt id='2013'>0.81301E+02</wgt>
<wgt id='2014'>0.81450E+02</wgt>
<wgt id='2015'>0.81309E+02</wgt>
<wgt id='2016'>0.81168E+02</wgt>
<wgt id='2017'>0.81152E+02</wgt>
<wgt id='2018'>0.80853E+02</wgt>
<wgt id='2019'>0.81495E+02</wgt>
<wgt id='2020'>0.80861E+02</wgt>
<wgt id='2021'>0.80984E+02</wgt>
<wgt id='2022'>0.80864E+02</wgt>
<wgt id='2023'>0.81026E+02</wgt>
<wgt id='2024'>0.81091E+02</wgt>
<wgt id='2025'>0.81114E+02</wgt>
<wgt id='2026'>0.80990E+02</wgt>
<wgt id='2027'>0.80783E+02</wgt>
<wgt id='2028'>0.81253E+02</wgt>
<wgt id='2029'>0.80780E+02</wgt>
<wgt id='2030'>0.81059E+02</wgt>
<wgt id='2031'>0.80824E+02</wgt>
<wgt id='2032'>0.81116E+02</wgt>
<wgt id='2033'>0.81002E+02</wgt>
<wgt id='2034'>0.80971E+02</wgt>
<wgt id='2035'>0.81118E+02</wgt>
<wgt id='2036'>0.81271E+02</wgt>
<wgt id='2037'>0.81086E+02</wgt>
<wgt id='2038'>0.81061E+02</wgt>
<wgt id='2039'>0.81104E+02</wgt>
<wgt id='2040'>0.81064E+02</wgt>
<wgt id='2041'>0.81103E+02</wgt>
<wgt id='2042'>0.81146E+02</wgt>
<wgt id='2043'>0.81043E+02</wgt>
<wgt id='2044'>0.81175E+02</wgt>
<wgt id='2045'>0.81112E+02</wgt>
<wgt id='2046'>0.81123E+02</wgt>
<wgt id='2047'>0.81086E+02</wgt>
<wgt id='2048'>0.81067E+02</wgt>
<wgt id='2049'>0.81043E+02</wgt>
<wgt id='2050'>0.81073E+02</wgt>
<wgt id='2051'>0.81102E+02</wgt>
<wgt id='2052'>0.81174E+02</wgt>
<wgt id='2053'>0.81091E+02</wgt>
<wgt id='2054'>0.81100E+02</wgt>
<wgt id='2055'>0.81122E+02</wgt>
<wgt id='2056'>0.81067E+02</wgt>
<wgt id='2057'>0.81135E+02</wgt>
<wgt id='2058'>0.81119E+02</wgt>
<wgt id='2059'>0.81118E+02</wgt>
<wgt id='2060'>0.81107E+02</wgt>
<wgt id='2061'>0.81085E+02</wgt>
<wgt id='2062'>0.81171E+02</wgt>
<wgt id='2063'>0.81124E+02</wgt>
<wgt id='2064'>0.81120E+02</wgt>
<wgt id='2065'>0.81178E+02</wgt>
<wgt id='2066'>0.81105E+02</wgt>
<wgt id='2067'>0.81126E+02</wgt>
<wgt id='2068'>0.81119E+02</wgt>
<wgt id='2069'>0.81107E+02</wgt>
<wgt id='2070'>0.81113E+02</wgt>
<wgt id='2071'>0.81106E+02</wgt>
<wgt id='2072'>0.81107E+02</wgt>
<wgt id='2073'>0.81124E+02</wgt>
<wgt id='2074'>0.81082E+02</wgt>
<wgt id='2075'>0.81090E+02</wgt>
<wgt id='2076'>0.81091E+02</wgt>
<wgt id='2077'>0.81149E+02</wgt>
<wgt id='2078'>0.81114E+02</wgt>
<wgt id='2079'>0.81085E+02</wgt>
<wgt id='2080'>0.81109E+02</wgt>
<wgt id='2081'>0.81092E+02</wgt>
<wgt id='2082'>0.81112E+02</wgt>
<wgt id='2083'>0.81134E+02</wgt>
<wgt id='2084'>0.81110E+02</wgt>
<wgt id='2085'>0.81102E+02</wgt>
<wgt id='2086'>0.81093E+02</wgt>
<wgt id='2087'>0.81112E+02</wgt>
<wgt id='2088'>0.81097E+02</wgt>
<wgt id='2089'>0.81095E+02</wgt>
<wgt id='2090'>0.81120E+02</wgt>
<wgt id='2091'>0.81104E+02</wgt>
<wgt id='2092'>0.81120E+02</wgt>
<wgt id='2093'>0.81088E+02</wgt>
<wgt id='2094'>0.81107E+02</wgt>
<wgt id='2095'>0.81116E+02</wgt>
<wgt id='2096'>0.81093E+02</wgt>
<wgt id='2097'>0.81113E+02</wgt>
<wgt id='2098'>0.81101E+02</wgt>
<wgt id='2099'>0.81116E+02</wgt>
<wgt id='2100'>0.81104E+02</wgt>
<wgt id='2101'>0.79051E+02</wgt>
<wgt id='2102'>0.83159E+02</wgt>
<wgt id='2200'>0.81189E+02</wgt>
<wgt id='2201'>0.71854E+02</wgt>
<wgt id='2202'>0.73611E+02</wgt>
<wgt id='2203'>0.75779E+02</wgt>
<wgt id='2204'>0.77662E+02</wgt>
<wgt id='2205'>0.80325E+02</wgt>
<wgt id='2206'>0.82292E+02</wgt>
<wgt id='2207'>0.84651E+02</wgt>
<wgt id='2208'>0.86569E+02</wgt>
<wgt id='2300'>0.84466E+02</wgt>
<wgt id='2301'>0.84532E+02</wgt>
<wgt id='2302'>0.84458E+02</wgt>
<wgt id='2303'>0.84518E+02</wgt>
<wgt id='2304'>0.84633E+02</wgt>
<wgt id='2305'>0.84649E+02</wgt>
<wgt id='2306'>0.84432E+02</wgt>
<wgt id='2307'>0.84711E+02</wgt>
<wgt id='2308'>0.84427E+02</wgt>
<wgt id='2309'>0.84732E+02</wgt>
<wgt id='2310'>0.84343E+02</wgt>
<wgt id='2311'>0.84302E+02</wgt>
<wgt id='2312'>0.84583E+02</wgt>
<wgt id='2313'>0.84546E+02</wgt>
<wgt id='2314'>0.84605E+02</wgt>
<wgt id='2315'>0.84291E+02</wgt>
<wgt id='2316'>0.84515E+02</wgt>
<wgt id='2317'>0.84586E+02</wgt>
<wgt id='2318'>0.84708E+02</wgt>
<wgt id='2319'>0.84255E+02</wgt>
<wgt id='2320'>0.84185E+02</wgt>
<wgt id='2321'>0.84136E+02</wgt>
<wgt id='2322'>0.84447E+02</wgt>
<wgt id='2323'>0.84240E+02</wgt>
<wgt id='2324'>0.84101E+02</wgt>
<wgt id='2325'>0.84494E+02</wgt>
<wgt id='2326'>0.84704E+02</wgt>
<wgt id='2327'>0.84487E+02</wgt>
<wgt id='2328'>0.84033E+02</wgt>
<wgt id='2329'>0.84268E+02</wgt>
<wgt id='2330'>0.84723E+02</wgt>
<wgt id='2331'>0.84590E+02</wgt>
<wgt id='2332'>0.84628E+02</wgt>
<wgt id='2333'>0.84672E+02</wgt>
<wgt id='2334'>0.84546E+02</wgt>
<wgt id='2335'>0.84645E+02</wgt>
<wgt id='2336'>0.84513E+02</wgt>
<wgt id='2337'>0.84471E+02</wgt>
<wgt id='2338'>0.84478E+02</wgt>
<wgt id='2339'>0.84392E+02</wgt>
<wgt id='2340'>0.84491E+02</wgt>
<wgt id='2341'>0.84529E+02</wgt>
<wgt id='2342'>0.84339E+02</wgt>
<wgt id='2343'>0.84349E+02</wgt>
<wgt id='2344'>0.84489E+02</wgt>
<wgt id='2345'>0.84549E+02</wgt>
<wgt id='2346'>0.84538E+02</wgt>
<wgt id='2347'>0.84442E+02</wgt>
<wgt id='2348'>0.84540E+02</wgt>
<wgt id='2349'>0.84446E+02</wgt>
<wgt id='2350'>0.84460E+02</wgt>
<wgt id='2351'>0.84589E+02</wgt>
<wgt id='2352'>0.84430E+02</wgt>
<wgt id='2353'>0.84435E+02</wgt>
<wgt id='2354'>0.84449E+02</wgt>
<wgt id='2355'>0.84437E+02</wgt>
<wgt id='2356'>0.84482E+02</wgt>
<wgt id='2357'>0.84419E+02</wgt>
<wgt id='2358'>0.84430E+02</wgt>
<wgt id='2359'>0.84463E+02</wgt>
<wgt id='2360'>0.84483E+02</wgt>
<wgt id='2361'>0.84483E+02</wgt>
<wgt id='2362'>0.84470E+02</wgt>
<wgt id='2363'>0.84496E+02</wgt>
<wgt id='2364'>0.84451E+02</wgt>
<wgt id='2365'>0.84479E+02</wgt>
<wgt id='2366'>0.84480E+02</wgt>
<wgt id='2367'>0.84432E+02</wgt>
<wgt id='2368'>0.84467E+02</wgt>
<wgt id='2369'>0.84431E+02</wgt>
<wgt id='2370'>0.84454E+02</wgt>
<wgt id='2371'>0.84467E+02</wgt>
<wgt id='2372'>0.84481E+02</wgt>
<wgt id='2373'>0.84457E+02</wgt>
<wgt id='2374'>0.84502E+02</wgt>
<wgt id='2375'>0.84477E+02</wgt>
<wgt id='2376'>0.84467E+02</wgt>
<wgt id='2377'>0.84466E+02</wgt>
<wgt id='2378'>0.84489E+02</wgt>
<wgt id='2379'>0.84448E+02</wgt>
<wgt id='2380'>0.84451E+02</wgt>
<wgt id='2381'>0.84459E+02</wgt>
<wgt id='2382'>0.84449E+02</wgt>
<wgt id='2383'>0.84470E+02</wgt>
<wgt id='2384'>0.84457E+02</wgt>
<wgt id='2385'>0.84478E+02</wgt>
<wgt id='2386'>0.84467E+02</wgt>
<wgt id='2387'>0.84460E+02</wgt>
<wgt id='2388'>0.84456E+02</wgt>
<wgt id='2389'>0.84467E+02</wgt>
<wgt id='2390'>0.84471E+02</wgt>
<wgt id='2391'>0.84464E+02</wgt>
<wgt id='2392'>0.84458E+02</wgt>
<wgt id='2393'>0.84468E+02</wgt>
<wgt id='2394'>0.84481E+02</wgt>
<wgt id='2395'>0.84470E+02</wgt>
<wgt id='2396'>0.84453E+02</wgt>
<wgt id='2397'>0.84449E+02</wgt>
<wgt id='2398'>0.84456E+02</wgt>
<wgt id='2399'>0.84476E+02</wgt>
<wgt id='2400'>0.84473E+02</wgt>
<wgt id='2401'>0.82389E+02</wgt>
<wgt id='2402'>0.86541E+02</wgt>
<wgt id='2500'>0.81100E+02</wgt>
<wgt id='2501'>0.85793E+02</wgt>
<wgt id='2600'>0.78110E+02</wgt>
<wgt id='2601'>0.78145E+02</wgt>
<wgt id='2602'>0.78004E+02</wgt>
<wgt id='2603'>0.78067E+02</wgt>
<wgt id='2604'>0.78133E+02</wgt>
<wgt id='2605'>0.77985E+02</wgt>
<wgt id='2606'>0.77915E+02</wgt>
<wgt id='2607'>0.78227E+02</wgt>
<wgt id='2608'>0.78013E+02</wgt>
<wgt id='2609'>0.78023E+02</wgt>
<wgt id='2610'>0.78063E+02</wgt>
<wgt id='2611'>0.78021E+02</wgt>
<wgt id='2612'>0.78481E+02</wgt>
<wgt id='2613'>0.78063E+02</wgt>
<wgt id='2614'>0.78093E+02</wgt>
<wgt id='2615'>0.77954E+02</wgt>
<wgt id='2616'>0.78065E+02</wgt>
<wgt id='2617'>0.77961E+02</wgt>
<wgt id='2618'>0.77871E+02</wgt>
<wgt id='2619'>0.78159E+02</wgt>
<wgt id='2620'>0.78149E+02</wgt>
<wgt id='2621'>0.78067E+02</wgt>
<wgt id='2622'>0.78169E+02</wgt>
<wgt id='2623'>0.78105E+02</wgt>
<wgt id='2624'>0.78128E+02</wgt>
<wgt id='2625'>0.78036E+02</wgt>
<wgt id='2626'>0.78095E+02</wgt>
<wgt id='2627'>0.78061E+02</wgt>
<wgt id='2628'>0.78131E+02</wgt>
<wgt id='2629'>0.78104E+02</wgt>
<wgt id='2630'>0.78084E+02</wgt>
<wgt id='2631'>0.78125E+02</wgt>
<wgt id='2632'>0.78111E+02</wgt>
<wgt id='2633'>0.78117E+02</wgt>
<wgt id='2634'>0.78132E+02</wgt>
<wgt id='2635'>0.78100E+02</wgt>
<wgt id='2636'>0.78103E+02</wgt>
<wgt id='2637'>0.78102E+02</wgt>
<wgt id='2638'>0.78106E+02</wgt>
<wgt id='2639'>0.78108E+02</wgt>
<wgt id='2640'>0.78114E+02</wgt>
<wgt id='2641'>0.78105E+02</wgt>
<wgt id='2642'>0.78106E+02</wgt>
<wgt id='2643'>0.78117E+02</wgt>
<wgt id='2644'>0.78109E+02</wgt>
<wgt id='2645'>0.78106E+02</wgt>
<wgt id='2646'>0.78089E+02</wgt>
<wgt id='2647'>0.78115E+02</wgt>
<wgt id='2648'>0.78113E+02</wgt>
<wgt id='2649'>0.78114E+02</wgt>
<wgt id='2650'>0.78111E+02</wgt>
<wgt id='2651'>0.76819E+02</wgt>
<wgt id='2652'>0.79317E+02</wgt>
<wgt id='2700'>0.75552E+02</wgt>
<wgt id='2701'>0.76819E+02</wgt>
<wgt id='2702'>0.77513E+02</wgt>
<wgt id='2703'>0.78608E+02</wgt>
<wgt id='2704'>0.79317E+02</wgt>
<wgt id='2705'>0.80423E+02</wgt>
<wgt id='2800'>0.79125E+02</wgt>
<wgt id='4000'>0.79541E+02</wgt>
<wgt id='4001'>0.79934E+02</wgt>
<wgt id='4002'>0.79436E+02</wgt>
<wgt id='4003'>0.80102E+02</wgt>
<wgt id='4004'>0.78918E+02</wgt>
<wgt id='4005'>0.79154E+02</wgt>
<wgt id='4006'>0.79903E+02</wgt>
<wgt id='4007'>0.80603E+02</wgt>
<wgt id='4008'>0.78500E+02</wgt>
<wgt id='4009'>0.80169E+02</wgt>
<wgt id='4010'>0.79027E+02</wgt>
<wgt id='4011'>0.79812E+02</wgt>
<wgt id='4012'>0.79292E+02</wgt>
<wgt id='4013'>0.80226E+02</wgt>
<wgt id='4014'>0.78931E+02</wgt>
<wgt id='4015'>0.79161E+02</wgt>
<wgt id='4016'>0.79786E+02</wgt>
<wgt id='4017'>0.79436E+02</wgt>
<wgt id='4018'>0.79695E+02</wgt>
<wgt id='4019'>0.80179E+02</wgt>
<wgt id='4020'>0.78570E+02</wgt>
<wgt id='4021'>0.79606E+02</wgt>
<wgt id='4022'>0.79404E+02</wgt>
<wgt id='4023'>0.79330E+02</wgt>
<wgt id='4024'>0.79754E+02</wgt>
<wgt id='4025'>0.79812E+02</wgt>
<wgt id='4026'>0.78873E+02</wgt>
<wgt id='4027'>0.79365E+02</wgt>
<wgt id='4028'>0.79752E+02</wgt>
<wgt id='4029'>0.78613E+02</wgt>
<wgt id='4030'>0.79706E+02</wgt>
<wgt id='4031'>0.79375E+02</wgt>
<wgt id='4032'>0.79405E+02</wgt>
<wgt id='4033'>0.79472E+02</wgt>
<wgt id='4034'>0.79356E+02</wgt>
<wgt id='4035'>0.80719E+02</wgt>
<wgt id='4036'>0.78644E+02</wgt>
<wgt id='4037'>0.80762E+02</wgt>
<wgt id='4038'>0.78546E+02</wgt>
<wgt id='4039'>0.80855E+02</wgt>
<wgt id='4040'>0.78177E+02</wgt>
<wgt id='4041'>0.79368E+02</wgt>
<wgt id='4042'>0.79596E+02</wgt>
<wgt id='4043'>0.78387E+02</wgt>
<wgt id='4044'>0.79965E+02</wgt>
<wgt id='4045'>0.81365E+02</wgt>
<wgt id='4046'>0.78700E+02</wgt>
<wgt id='4047'>0.78361E+02</wgt>
<wgt id='4048'>0.80048E+02</wgt>
<wgt id='4049'>0.79422E+02</wgt>
<wgt id='4050'>0.79630E+02</wgt>
<wgt id='4051'>0.80699E+02</wgt>
<wgt id='4052'>0.78456E+02</wgt>
<wgt id='4053'>0.80468E+02</wgt>
<wgt id='4054'>0.78287E+02</wgt>
<wgt id='4055'>0.79978E+02</wgt>
<wgt id='4056'>0.79053E+02</wgt>
<wgt id='4057'>0.78715E+02</wgt>
<wgt id='4058'>0.80077E+02</wgt>
<wgt id='4100'>0.80138E+02</wgt>
<wgt id='4101'>0.79865E+02</wgt>
<wgt id='4102'>0.79174E+02</wgt>
<wgt id='4103'>0.78775E+02</wgt>
<wgt id='4200'>0.76028E+02</wgt>
<wgt id='4201'>0.76180E+02</wgt>
<wgt id='4202'>0.76143E+02</wgt>
<wgt id='4203'>0.75335E+02</wgt>
<wgt id='4204'>0.76594E+02</wgt>
<wgt id='4205'>0.75958E+02</wgt>
<wgt id='4206'>0.76227E+02</wgt>
<wgt id='4207'>0.75827E+02</wgt>
<wgt id='4208'>0.76227E+02</wgt>
<wgt id='4209'>0.76261E+02</wgt>
<wgt id='4210'>0.76007E+02</wgt>
<wgt id='4211'>0.77108E+02</wgt>
<wgt id='4212'>0.75184E+02</wgt>
<wgt id='4213'>0.76209E+02</wgt>
<wgt id='4214'>0.75755E+02</wgt>
<wgt id='4215'>0.76167E+02</wgt>
<wgt id='4216'>0.75595E+02</wgt>
<wgt id='4217'>0.75627E+02</wgt>
<wgt id='4218'>0.76333E+02</wgt>
<wgt id='4219'>0.74820E+02</wgt>
<wgt id='4220'>0.77143E+02</wgt>
<wgt id='4221'>0.75403E+02</wgt>
<wgt id='4222'>0.76757E+02</wgt>
<wgt id='4223'>0.76652E+02</wgt>
<wgt id='4224'>0.75223E+02</wgt>
<wgt id='4225'>0.74495E+02</wgt>
<wgt id='4226'>0.77461E+02</wgt>
<wgt id='4227'>0.76638E+02</wgt>
<wgt id='4228'>0.75517E+02</wgt>
<wgt id='4229'>0.75353E+02</wgt>
<wgt id='4230'>0.76477E+02</wgt>
<wgt id='4231'>0.76045E+02</wgt>
<wgt id='4232'>0.75942E+02</wgt>
<wgt id='4233'>0.76333E+02</wgt>
<wgt id='4234'>0.75541E+02</wgt>
<wgt id='4235'>0.76405E+02</wgt>
<wgt id='4236'>0.75736E+02</wgt>
<wgt id='4237'>0.76023E+02</wgt>
<wgt id='4238'>0.75817E+02</wgt>
<wgt id='4239'>0.76788E+02</wgt>
<wgt id='4240'>0.74501E+02</wgt>
<wgt id='4241'>0.75608E+02</wgt>
<wgt id='4242'>0.76480E+02</wgt>
<wgt id='4243'>0.75958E+02</wgt>
<wgt id='4244'>0.76347E+02</wgt>
<wgt id='4245'>0.75153E+02</wgt>
<wgt id='4246'>0.76873E+02</wgt>
<wgt id='4247'>0.75758E+02</wgt>
<wgt id='4248'>0.76139E+02</wgt>
<wgt id='4249'>0.77266E+02</wgt>
<wgt id='4250'>0.74593E+02</wgt>
<wgt id='4251'>0.75206E+02</wgt>
<wgt id='4252'>0.76470E+02</wgt>
<wgt id='4253'>0.75664E+02</wgt>
<wgt id='4254'>0.76261E+02</wgt>
<wgt id='4255'>0.76243E+02</wgt>
<wgt id='4256'>0.75806E+02</wgt>
<wgt id='4257'>0.74585E+02</wgt>
<wgt id='4258'>0.76440E+02</wgt>
<wgt id='4300'>0.78759E+02</wgt>
<wgt id='4301'>0.77534E+02</wgt>
<wgt id='5000'>0.79032E+02</wgt>
<wgt id='5001'>0.79073E+02</wgt>
<wgt id='5002'>0.78980E+02</wgt>
<wgt id='5003'>0.79051E+02</wgt>
<wgt id='5004'>0.79015E+02</wgt>
<wgt id='5005'>0.79041E+02</wgt>
<wgt id='5006'>0.79018E+02</wgt>
<wgt id='5007'>0.79091E+02</wgt>
<wgt id='5008'>0.78985E+02</wgt>
<wgt id='5009'>0.79153E+02</wgt>
<wgt id='5010'>0.78908E+02</wgt>
<wgt id='5011'>0.79204E+02</wgt>
<wgt id='5012'>0.78867E+02</wgt>
<wgt id='5013'>0.79159E+02</wgt>
<wgt id='5014'>0.78942E+02</wgt>
<wgt id='5015'>0.78629E+02</wgt>
<wgt id='5016'>0.78629E+02</wgt>
<wgt id='5017'>0.79479E+02</wgt>
<wgt id='5018'>0.78731E+02</wgt>
<wgt id='5019'>0.79338E+02</wgt>
<wgt id='5020'>0.78614E+02</wgt>
<wgt id='5021'>0.79118E+02</wgt>
<wgt id='5022'>0.78900E+02</wgt>
<wgt id='5023'>0.78944E+02</wgt>
<wgt id='5024'>0.79244E+02</wgt>
<wgt id='5025'>0.78745E+02</wgt>
<wgt id='5026'>0.79355E+02</wgt>
<wgt id='5027'>0.79073E+02</wgt>
<wgt id='5028'>0.78924E+02</wgt>
<wgt id='5029'>0.79735E+02</wgt>
<wgt id='5030'>0.78635E+02</wgt>
<wgt id='5031'>0.78675E+02</wgt>
<wgt id='5032'>0.80116E+02</wgt>
<wgt id='5033'>0.79028E+02</wgt>
<wgt id='5034'>0.79038E+02</wgt>
<wgt id='5035'>0.79037E+02</wgt>
<wgt id='5036'>0.79028E+02</wgt>
<wgt id='5037'>0.78909E+02</wgt>
<wgt id='5038'>0.79103E+02</wgt>
<wgt id='5039'>0.79244E+02</wgt>
<wgt id='5040'>0.78509E+02</wgt>
<wgt id='5041'>0.79262E+02</wgt>
<wgt id='5042'>0.78798E+02</wgt>
<wgt id='5043'>0.79167E+02</wgt>
<wgt id='5044'>0.78955E+02</wgt>
<wgt id='5045'>0.78818E+02</wgt>
<wgt id='5046'>0.79434E+02</wgt>
<wgt id='5047'>0.79071E+02</wgt>
<wgt id='5048'>0.78861E+02</wgt>
<wgt id='5049'>0.79009E+02</wgt>
<wgt id='5050'>0.79092E+02</wgt>
<wgt id='5051'>0.79153E+02</wgt>
<wgt id='5052'>0.78926E+02</wgt>
<wgt id='5053'>0.78933E+02</wgt>
<wgt id='5054'>0.79172E+02</wgt>
<wgt id='5055'>0.79082E+02</wgt>
<wgt id='5056'>0.79061E+02</wgt>
<wgt id='5057'>0.78779E+02</wgt>
<wgt id='5058'>0.79209E+02</wgt>
<wgt id='5059'>0.79021E+02</wgt>
<wgt id='5060'>0.79049E+02</wgt>
<wgt id='5061'>0.79322E+02</wgt>
<wgt id='5062'>0.79037E+02</wgt>
<wgt id='5063'>0.79347E+02</wgt>
<wgt id='5064'>0.78954E+02</wgt>
<wgt id='5100'>0.79032E+02</wgt>
<wgt id='5101'>0.79054E+02</wgt>
<wgt id='6000'>0.79287E+02</wgt>
<wgt id='6001'>0.79481E+02</wgt>
<wgt id='6002'>0.79358E+02</wgt>
<wgt id='6003'>0.79265E+02</wgt>
<wgt id='6004'>0.79271E+02</wgt>
<wgt id='6005'>0.79181E+02</wgt>
<wgt id='6006'>0.79591E+02</wgt>
<wgt id='6007'>0.79164E+02</wgt>
<wgt id='6008'>0.78682E+02</wgt>
<wgt id='6009'>0.79615E+02</wgt>
<wgt id='6010'>0.78102E+02</wgt>
<wgt id='6011'>0.79258E+02</wgt>
<wgt id='6012'>0.79553E+02</wgt>
<wgt id='6013'>0.79093E+02</wgt>
<wgt id='6014'>0.79235E+02</wgt>
<wgt id='6015'>0.78745E+02</wgt>
<wgt id='6016'>0.79355E+02</wgt>
<wgt id='6017'>0.79321E+02</wgt>
<wgt id='6018'>0.79165E+02</wgt>
<wgt id='6019'>0.79352E+02</wgt>
<wgt id='6020'>0.79464E+02</wgt>
<wgt id='6021'>0.79392E+02</wgt>
<wgt id='6022'>0.79281E+02</wgt>
<wgt id='6023'>0.79329E+02</wgt>
<wgt id='6024'>0.79362E+02</wgt>
<wgt id='6025'>0.79526E+02</wgt>
<wgt id='6026'>0.79342E+02</wgt>
<wgt id='6027'>0.79318E+02</wgt>
<wgt id='6028'>0.79146E+02</wgt>
<wgt id='6029'>0.79116E+02</wgt>
<wgt id='6030'>0.80064E+02</wgt>
<wgt id='6031'>0.79128E+02</wgt>
<wgt id='6032'>0.79318E+02</wgt>
<wgt id='6033'>0.79163E+02</wgt>
<wgt id='6034'>0.79494E+02</wgt>
<wgt id='6035'>0.79333E+02</wgt>
<wgt id='6036'>0.79719E+02</wgt>
<wgt id='6037'>0.79298E+02</wgt>
<wgt id='6038'>0.79351E+02</wgt>
<wgt id='6039'>0.79422E+02</wgt>
<wgt id='6040'>0.79274E+02</wgt>
<wgt id='6041'>0.78319E+02</wgt>
<wgt id='6042'>0.80019E+02</wgt>
<wgt id='7000'>0.78767E+02</wgt>
<wgt id='7001'>0.78344E+02</wgt>
<wgt id='7002'>0.78519E+02</wgt>
<wgt id='7003'>0.78403E+02</wgt>
<wgt id='7004'>0.78461E+02</wgt>
<wgt id='7005'>0.78539E+02</wgt>
<wgt id='7006'>0.78325E+02</wgt>
<wgt id='7007'>0.78943E+02</wgt>
<wgt id='7008'>0.77935E+02</wgt>
<wgt id='7009'>0.78098E+02</wgt>
<wgt id='7010'>0.78778E+02</wgt>
<wgt id='7011'>0.78709E+02</wgt>
<wgt id='7012'>0.78157E+02</wgt>
<wgt id='7013'>0.78300E+02</wgt>
<wgt id='7014'>0.78555E+02</wgt>
<wgt id='7015'>0.78318E+02</wgt>
<wgt id='7016'>0.78308E+02</wgt>
<wgt id='7017'>0.78469E+02</wgt>
<wgt id='7018'>0.78399E+02</wgt>
<wgt id='7019'>0.78257E+02</wgt>
<wgt id='7020'>0.78617E+02</wgt>
<wgt id='7021'>0.78481E+02</wgt>
<wgt id='7022'>0.78367E+02</wgt>
<wgt id='7023'>0.78160E+02</wgt>
<wgt id='7024'>0.78719E+02</wgt>
<wgt id='7025'>0.77536E+02</wgt>
<wgt id='7026'>0.79260E+02</wgt>
<wgt id='7027'>0.78082E+02</wgt>
<wgt id='7028'>0.78832E+02</wgt>
<wgt id='8000'>0.79145E+02</wgt>
<wgt id='8001'>0.79137E+02</wgt>
<wgt id='8002'>0.79169E+02</wgt>
<wgt id='8003'>0.79147E+02</wgt>
<wgt id='8004'>0.79143E+02</wgt>
<wgt id='8005'>0.78997E+02</wgt>
<wgt id='8006'>0.79226E+02</wgt>
<wgt id='8007'>0.79305E+02</wgt>
<wgt id='8008'>0.79327E+02</wgt>
<wgt id='8009'>0.79484E+02</wgt>
<wgt id='8010'>0.79055E+02</wgt>
<wgt id='8011'>0.79157E+02</wgt>
<wgt id='8012'>0.78840E+02</wgt>
<wgt id='8013'>0.78989E+02</wgt>
<wgt id='8014'>0.79336E+02</wgt>
<wgt id='8015'>0.79100E+02</wgt>
<wgt id='8016'>0.79217E+02</wgt>
<wgt id='8017'>0.79192E+02</wgt>
<wgt id='8018'>0.79331E+02</wgt>
<wgt id='8019'>0.79231E+02</wgt>
<wgt id='8020'>0.79051E+02</wgt>
<wgt id='8021'>0.79090E+02</wgt>
<wgt id='8022'>0.78970E+02</wgt>
<wgt id='8023'>0.79093E+02</wgt>
<wgt id='8024'>0.78955E+02</wgt>
<wgt id='8025'>0.79165E+02</wgt>
<wgt id='8026'>0.79266E+02</wgt>
<wgt id='8027'>0.79177E+02</wgt>
<wgt id='8028'>0.79206E+02</wgt>
<wgt id='8029'>0.78865E+02</wgt>
<wgt id='3000'>0.81104E+02</wgt>
<wgt id='3001'>0.81186E+02</wgt>
<wgt id='3002'>0.80350E+02</wgt>
<wgt id='3003'>0.83456E+02</wgt>
<wgt id='3004'>0.81829E+02</wgt>
<wgt id='3005'>0.80374E+02</wgt>
<wgt id='3006'>0.84001E+02</wgt>
<wgt id='3007'>0.80758E+02</wgt>
<wgt id='3008'>0.80024E+02</wgt>
<wgt id='3009'>0.82094E+02</wgt>
<wgt id='3010'>0.82720E+02</wgt>
<wgt id='3011'>0.83023E+02</wgt>
<wgt id='3012'>0.81888E+02</wgt>
<wgt id='3013'>0.80154E+02</wgt>
<wgt id='3014'>0.80387E+02</wgt>
<wgt id='3015'>0.80947E+02</wgt>
<wgt id='3016'>0.82169E+02</wgt>
<wgt id='3017'>0.82573E+02</wgt>
<wgt id='3018'>0.81200E+02</wgt>
<wgt id='3019'>0.78982E+02</wgt>
<wgt id='3020'>0.79991E+02</wgt>
<wgt id='3021'>0.79512E+02</wgt>
<wgt id='3022'>0.78740E+02</wgt>
<wgt id='3023'>0.79262E+02</wgt>
<wgt id='3024'>0.79544E+02</wgt>
<wgt id='3025'>0.79597E+02</wgt>
<wgt id='3026'>0.80456E+02</wgt>
<wgt id='3027'>0.79287E+02</wgt>
<wgt id='3028'>0.82053E+02</wgt>
<wgt id='3029'>0.82259E+02</wgt>
<wgt id='3030'>0.83003E+02</wgt>
<wgt id='3031'>0.82181E+02</wgt>
<wgt id='3032'>0.82903E+02</wgt>
<wgt id='3033'>0.80123E+02</wgt>
<wgt id='3034'>0.81097E+02</wgt>
<wgt id='3035'>0.82119E+02</wgt>
<wgt id='3036'>0.81085E+02</wgt>
<wgt id='3037'>0.81474E+02</wgt>
<wgt id='3038'>0.80881E+02</wgt>
<wgt id='3039'>0.81618E+02</wgt>
<wgt id='3040'>0.80837E+02</wgt>
<wgt id='3041'>0.81069E+02</wgt>
<wgt id='3042'>0.80952E+02</wgt>
<wgt id='3043'>0.80905E+02</wgt>
<wgt id='3044'>0.80796E+02</wgt>
<wgt id='3045'>0.81012E+02</wgt>
<wgt id='3046'>0.81676E+02</wgt>
<wgt id='3047'>0.80617E+02</wgt>
<wgt id='3048'>0.79297E+02</wgt>
<wgt id='3049'>0.81881E+02</wgt>
<wgt id='3050'>0.82725E+02</wgt>
<wgt id='3051'>0.81574E+02</wgt>
<wgt id='3052'>0.79925E+02</wgt>
<wgt id='3053'>0.80454E+02</wgt>
<wgt id='3054'>0.81838E+02</wgt>
<wgt id='3055'>0.79272E+02</wgt>
<wgt id='3056'>0.80584E+02</wgt>
<wgt id='3057'>0.80585E+02</wgt>
<wgt id='3058'>0.79172E+02</wgt>
<wgt id='3059'>0.82178E+02</wgt>
<wgt id='3060'>0.81545E+02</wgt>
<wgt id='3061'>0.81272E+02</wgt>
<wgt id='3062'>0.80850E+02</wgt>
<wgt id='3063'>0.78685E+02</wgt>
<wgt id='3064'>0.80564E+02</wgt>
<wgt id='3065'>0.80327E+02</wgt>
<wgt id='3066'>0.81381E+02</wgt>
<wgt id='3067'>0.79584E+02</wgt>
<wgt id='3068'>0.81729E+02</wgt>
<wgt id='3069'>0.80669E+02</wgt>
<wgt id='3070'>0.79860E+02</wgt>
<wgt id='3071'>0.82198E+02</wgt>
<wgt id='3072'>0.80809E+02</wgt>
<wgt id='3073'>0.81901E+02</wgt>
<wgt id='3074'>0.81959E+02</wgt>
<wgt id='3075'>0.82513E+02</wgt>
<wgt id='3076'>0.82575E+02</wgt>
<wgt id='3077'>0.79885E+02</wgt>
<wgt id='3078'>0.82215E+02</wgt>
<wgt id='3079'>0.80675E+02</wgt>
<wgt id='3080'>0.81249E+02</wgt>
<wgt id='3081'>0.79348E+02</wgt>
<wgt id='3082'>0.82169E+02</wgt>
<wgt id='3083'>0.81191E+02</wgt>
<wgt id='3084'>0.80883E+02</wgt>
<wgt id='3085'>0.84102E+02</wgt>
<wgt id='3086'>0.79905E+02</wgt>
<wgt id='3087'>0.82004E+02</wgt>
<wgt id='3088'>0.82764E+02</wgt>
<wgt id='3089'>0.83445E+02</wgt>
<wgt id='3090'>0.81277E+02</wgt>
<wgt id='3091'>0.80273E+02</wgt>
<wgt id='3092'>0.82162E+02</wgt>
<wgt id='3093'>0.81426E+02</wgt>
<wgt id='3094'>0.81002E+02</wgt>
<wgt id='3095'>0.81389E+02</wgt>
<wgt id='3096'>0.80214E+02</wgt>
<wgt id='3097'>0.80044E+02</wgt>
<wgt id='3098'>0.81825E+02</wgt>
<wgt id='3099'>0.79965E+02</wgt>
<wgt id='3100'>0.80277E+02</wgt>
<wgt id='3200'>0.78127E+02</wgt>
<wgt id='3201'>0.78707E+02</wgt>
<wgt id='3202'>0.77154E+02</wgt>
<wgt id='3203'>0.78100E+02</wgt>
<wgt id='3204'>0.77490E+02</wgt>
<wgt id='3205'>0.78927E+02</wgt>
<wgt id='3206'>0.78507E+02</wgt>
<wgt id='3207'>0.78872E+02</wgt>
<wgt id='3208'>0.78594E+02</wgt>
<wgt id='3209'>0.77934E+02</wgt>
<wgt id='3210'>0.78022E+02</wgt>
<wgt id='3211'>0.78769E+02</wgt>
<wgt id='3212'>0.76972E+02</wgt>
<wgt id='3213'>0.77941E+02</wgt>
<wgt id='3214'>0.77619E+02</wgt>
<wgt id='3215'>0.78157E+02</wgt>
<wgt id='3216'>0.78960E+02</wgt>
<wgt id='3217'>0.78481E+02</wgt>
<wgt id='3218'>0.78085E+02</wgt>
<wgt id='3219'>0.77921E+02</wgt>
<wgt id='3220'>0.77687E+02</wgt>
<wgt id='3221'>0.78937E+02</wgt>
<wgt id='3222'>0.79354E+02</wgt>
<wgt id='3223'>0.77691E+02</wgt>
<wgt id='3224'>0.77969E+02</wgt>
<wgt id='3225'>0.78699E+02</wgt>
<wgt id='3226'>0.78488E+02</wgt>
<wgt id='3227'>0.77606E+02</wgt>
<wgt id='3228'>0.77654E+02</wgt>
<wgt id='3229'>0.78446E+02</wgt>
<wgt id='3230'>0.78662E+02</wgt>
<wgt id='3231'>0.78424E+02</wgt>
<wgt id='3232'>0.78544E+02</wgt>
<wgt id='3233'>0.78821E+02</wgt>
<wgt id='3234'>0.78155E+02</wgt>
<wgt id='3235'>0.77384E+02</wgt>
<wgt id='3236'>0.77165E+02</wgt>
<wgt id='3237'>0.77719E+02</wgt>
<wgt id='3238'>0.78098E+02</wgt>
<wgt id='3239'>0.77701E+02</wgt>
<wgt id='3240'>0.77953E+02</wgt>
<wgt id='3241'>0.78787E+02</wgt>
<wgt id='3242'>0.77496E+02</wgt>
<wgt id='3243'>0.77087E+02</wgt>
<wgt id='3244'>0.77872E+02</wgt>
<wgt id='3245'>0.78448E+02</wgt>
<wgt id='3246'>0.77640E+02</wgt>
<wgt id='3247'>0.78273E+02</wgt>
<wgt id='3248'>0.77909E+02</wgt>
<wgt id='3249'>0.77808E+02</wgt>
<wgt id='3250'>0.78491E+02</wgt>
<wgt id='3251'>0.78165E+02</wgt>
<wgt id='3252'>0.78283E+02</wgt>
<wgt id='3253'>0.77943E+02</wgt>
<wgt id='3254'>0.77826E+02</wgt>
<wgt id='3255'>0.78067E+02</wgt>
<wgt id='3256'>0.77487E+02</wgt>
<wgt id='3257'>0.77889E+02</wgt>
<wgt id='3258'>0.78560E+02</wgt>
<wgt id='3259'>0.78545E+02</wgt>
<wgt id='3260'>0.78421E+02</wgt>
<wgt id='3261'>0.78903E+02</wgt>
<wgt id='3262'>0.77677E+02</wgt>
<wgt id='3263'>0.78829E+02</wgt>
<wgt id='3264'>0.78353E+02</wgt>
<wgt id='3265'>0.78213E+02</wgt>
<wgt id='3266'>0.77719E+02</wgt>
<wgt id='3267'>0.77839E+02</wgt>
<wgt id='3268'>0.78893E+02</wgt>
<wgt id='3269'>0.78293E+02</wgt>
<wgt id='3270'>0.78009E+02</wgt>
<wgt id='3271'>0.78211E+02</wgt>
<wgt id='3272'>0.78624E+02</wgt>
<wgt id='3273'>0.78024E+02</wgt>
<wgt id='3274'>0.78543E+02</wgt>
<wgt id='3275'>0.78360E+02</wgt>
<wgt id='3276'>0.77664E+02</wgt>
<wgt id='3277'>0.77264E+02</wgt>
<wgt id='3278'>0.77917E+02</wgt>
<wgt id='3279'>0.78948E+02</wgt>
<wgt id='3280'>0.77981E+02</wgt>
<wgt id='3281'>0.78374E+02</wgt>
<wgt id='3282'>0.78503E+02</wgt>
<wgt id='3283'>0.78480E+02</wgt>
<wgt id='3284'>0.78307E+02</wgt>
<wgt id='3285'>0.77375E+02</wgt>
<wgt id='3286'>0.77992E+02</wgt>
<wgt id='3287'>0.77609E+02</wgt>
<wgt id='3288'>0.78489E+02</wgt>
<wgt id='3289'>0.79191E+02</wgt>
<wgt id='3290'>0.79528E+02</wgt>
<wgt id='3291'>0.76685E+02</wgt>
<wgt id='3292'>0.76940E+02</wgt>
<wgt id='3293'>0.77917E+02</wgt>
<wgt id='3294'>0.76528E+02</wgt>
<wgt id='3295'>0.77564E+02</wgt>
<wgt id='3296'>0.79433E+02</wgt>
<wgt id='3297'>0.77728E+02</wgt>
<wgt id='3298'>0.78206E+02</wgt>
<wgt id='3299'>0.77601E+02</wgt>
<wgt id='3300'>0.78701E+02</wgt>
<wgt id='3301'>0.76819E+02</wgt>
<wgt id='3302'>0.79317E+02</wgt>
<wgt id='3400'>0.78554E+02</wgt>
<wgt id='3401'>0.78631E+02</wgt>
<wgt id='3402'>0.78189E+02</wgt>
<wgt id='3403'>0.79344E+02</wgt>
<wgt id='3404'>0.79672E+02</wgt>
<wgt id='3405'>0.79534E+02</wgt>
<wgt id='3406'>0.78241E+02</wgt>
<wgt id='3407'>0.77780E+02</wgt>
<wgt id='3408'>0.80031E+02</wgt>
<wgt id='3409'>0.79718E+02</wgt>
<wgt id='3410'>0.78816E+02</wgt>
<wgt id='3411'>0.78815E+02</wgt>
<wgt id='3412'>0.79097E+02</wgt>
<wgt id='3413'>0.78397E+02</wgt>
<wgt id='3414'>0.78603E+02</wgt>
<wgt id='3415'>0.78685E+02</wgt>
<wgt id='3416'>0.78218E+02</wgt>
<wgt id='3417'>0.78333E+02</wgt>
<wgt id='3418'>0.78100E+02</wgt>
<wgt id='3419'>0.78029E+02</wgt>
<wgt id='3420'>0.79118E+02</wgt>
<wgt id='3421'>0.79230E+02</wgt>
<wgt id='3422'>0.79021E+02</wgt>
<wgt id='3423'>0.79274E+02</wgt>
<wgt id='3424'>0.78812E+02</wgt>
<wgt id='3425'>0.78614E+02</wgt>
<wgt id='3426'>0.78758E+02</wgt>
<wgt id='3427'>0.78786E+02</wgt>
<wgt id='3428'>0.79238E+02</wgt>
<wgt id='3429'>0.77987E+02</wgt>
<wgt id='3430'>0.78799E+02</wgt>
<wgt id='3431'>0.78359E+02</wgt>
<wgt id='3432'>0.77890E+02</wgt>
<wgt id='3433'>0.77203E+02</wgt>
<wgt id='3434'>0.78573E+02</wgt>
<wgt id='3435'>0.78816E+02</wgt>
<wgt id='3436'>0.78602E+02</wgt>
<wgt id='3437'>0.78154E+02</wgt>
<wgt id='3438'>0.77805E+02</wgt>
<wgt id='3439'>0.79365E+02</wgt>
<wgt id='3440'>0.78723E+02</wgt>
<wgt id='3441'>0.78596E+02</wgt>
<wgt id='3442'>0.77263E+02</wgt>
<wgt id='3443'>0.78338E+02</wgt>
<wgt id='3444'>0.78614E+02</wgt>
<wgt id='3445'>0.78150E+02</wgt>
<wgt id='3446'>0.79558E+02</wgt>
<wgt id='3447'>0.79956E+02</wgt>
<wgt id='3448'>0.78963E+02</wgt>
<wgt id='3449'>0.79449E+02</wgt>
<wgt id='3450'>0.78686E+02</wgt>
<wgt id='3451'>0.79286E+02</wgt>
<wgt id='3452'>0.78059E+02</wgt>
<wgt id='3453'>0.77820E+02</wgt>
<wgt id='3454'>0.77630E+02</wgt>
<wgt id='3455'>0.79604E+02</wgt>
<wgt id='3456'>0.78913E+02</wgt>
<wgt id='3457'>0.79839E+02</wgt>
<wgt id='3458'>0.78920E+02</wgt>
<wgt id='3459'>0.78377E+02</wgt>
<wgt id='3460'>0.78410E+02</wgt>
<wgt id='3461'>0.78137E+02</wgt>
<wgt id='3462'>0.78135E+02</wgt>
<wgt id='3463'>0.77906E+02</wgt>
<wgt id='3464'>0.78896E+02</wgt>
<wgt id='3465'>0.78385E+02</wgt>
<wgt id='3466'>0.79050E+02</wgt>
<wgt id='3467'>0.78268E+02</wgt>
<wgt id='3468'>0.77931E+02</wgt>
<wgt id='3469'>0.78844E+02</wgt>
<wgt id='3470'>0.78504E+02</wgt>
<wgt id='3471'>0.78396E+02</wgt>
<wgt id='3472'>0.77932E+02</wgt>
<wgt id='3473'>0.78730E+02</wgt>
<wgt id='3474'>0.78668E+02</wgt>
<wgt id='3475'>0.78366E+02</wgt>
<wgt id='3476'>0.78526E+02</wgt>
<wgt id='3477'>0.77975E+02</wgt>
<wgt id='3478'>0.79091E+02</wgt>
<wgt id='3479'>0.79208E+02</wgt>
<wgt id='3480'>0.77728E+02</wgt>
<wgt id='3481'>0.78378E+02</wgt>
<wgt id='3482'>0.78401E+02</wgt>
<wgt id='3483'>0.77149E+02</wgt>
<wgt id='3484'>0.78653E+02</wgt>
<wgt id='3485'>0.78192E+02</wgt>
<wgt id='3486'>0.77550E+02</wgt>
<wgt id='3487'>0.79099E+02</wgt>
<wgt id='3488'>0.79187E+02</wgt>
<wgt id='3489'>0.77874E+02</wgt>
<wgt id='3490'>0.79185E+02</wgt>
<wgt id='3491'>0.78075E+02</wgt>
<wgt id='3492'>0.78990E+02</wgt>
<wgt id='3493'>0.77595E+02</wgt>
<wgt id='3494'>0.76624E+02</wgt>
<wgt id='3495'>0.78739E+02</wgt>
<wgt id='3496'>0.77534E+02</wgt>
<wgt id='3497'>0.78023E+02</wgt>
<wgt id='3498'>0.78383E+02</wgt>
<wgt id='3499'>0.78641E+02</wgt>
<wgt id='3500'>0.78786E+02</wgt>
</rwgt>
</event>
<event>
     13 322200  8.11039E+01  9.76868E+01 -1.00000E+00  1.22689E-01
      -1    -1     0     0     0   512  0.000000000E+00  0.000000000E+00  3.788827585E+02  3.788827585E+02  0.000000000E+00  0.00000E+00  9.000E+00
      21    -1     0     0   512   513  0.000000000E+00  0.000000000E+00 -4.218424188E+02  4.218424188E+02  0.000000000E+00  0.00000E+00  9.000E+00
       6     2     1     2   502     0  3.352034221E+01 -3.109875446E+01 -2.831610748E+02  3.350930424E+02  1.732524369E+02  0.00000E+00  9.000E+00
      -6     2     1     2     0   513 -1.204217491E+02 -1.352021532E+01  4.655520914E+00  2.106328817E+02  1.722217846E+02  0.00000E+00  9.000E+00
      -1     1     1     2     0   502  8.690140691E+01  4.461896978E+01  2.355458936E+02  2.549992531E+02  2.100000000E-01  0.00000E+00  9.000E+00
      24     2     3     3     0     0  5.990495676E+01 -3.612296874E+00 -2.787334795E+02  2.964037618E+02  8.100114110E+01  0.00000E+00  9.000E+00
       5     1     3     3   502     0 -2.638461455E+01 -2.748645758E+01 -4.427595304E+00  3.868928063E+01  5.060000000E+00  0.00000E+00 -1.000E+00
     -24     2     4     4     0     0 -7.803373992E+01  4.449795458E+01  4.457598440E+01  1.282793853E+02  7.999531104E+01  0.00000E+00  9.000E+00
      -5     1     4     4     0   513 -4.238800921E+01 -5.801816990E+01 -3.992046348E+01  8.235349639E+01  5.060000000E+00  0.00000E+00  1.000E+00
     -11     1     6     6     0     0  2.469314255E+01  7.273795653E+00 -2.452862178E+02  2.466333068E+02  5.100000000E-04  0.00000E+00  1.000E+00
      12     1     6     6     0     0  3.521181421E+01 -1.088609253E+01 -3.344726174E+01  4.977045497E+01  0.000000000E+00  0.00000E+00 -1.000E+00
      11     1     8     8     0     0 -9.127627385E+01  4.531510647E+01  2.550837503E+01  1.050499607E+02  5.100000000E-04  0.00000E+00 -1.000E+00
     -12     1     8     8     0     0  1.324253394E+01 -8.171518854E-01  1.906760937E+01  2.322942464E+01  0.000000000E+00  0.00000E+00  1.000E+00
#rwgt            1           6   8.9873814667047789               10       32475           0
<rwgt>
<wgt id='1001'>0.81104E+02</wgt>
<wgt id='1002'>0.75906E+02</wgt>
<wgt id='1003'>0.85813E+02</wgt>
<wgt id='1004'>0.75972E+02</wgt>
<wgt id='1005'>0.72045E+02</wgt>
<wgt id='1006'>0.79443E+02</wgt>
<wgt id='1007'>0.84561E+02</wgt>
<wgt id='1008'>0.77493E+02</wgt>
<wgt id='1009'>0.91115E+02</wgt>
<wgt id='2000'>0.81104E+02</wgt>
<wgt id='2001'>0.81157E+02</wgt>
<wgt id='2002'>0.80942E+02</wgt>
<wgt id='2003'>0.80847E+02</wgt>
<wgt id='2004'>0.81101E+02</wgt>
<wgt id='2005'>0.81174E+02</wgt>
<wgt id='2006'>0.81021E+02</wgt>
<wgt id='2007'>0.80662E+02</wgt>
<wgt id='2008'>0.80523E+02</wgt>
<wgt id='2009'>0.81512E+02</wgt>
<wgt id='2010'>0.80742E+02</wgt>
<wgt id='2011'>0.81159E+02</wgt>
<wgt id='2012'>0.81126E+02</wgt>
<wgt id='2013'>0.81528E+02</wgt>
<wgt id='2014'>0.81271E+02</wgt>
<wgt id='2015'>0.82389E+02</wgt>
<wgt id='2016'>0.80575E+02</wgt>
<wgt id='2017'>0.80970E+02</wgt>
<wgt id='2018'>0.80472E+02</wgt>
<wgt id='2019'>0.81402E+02</wgt>
<wgt id='2020'>0.81392E+02</wgt>
<wgt id='2021'>0.80778E+02</wgt>
<wgt id='2022'>0.81581E+02</wgt>
<wgt id='2023'>0.80764E+02</wgt>
<wgt id='2024'>0.80654E+02</wgt>
<wgt id='2025'>0.80659E+02</wgt>
<wgt id='2026'>0.80991E+02</wgt>
<wgt id='2027'>0.82081E+02</wgt>
<wgt id='2028'>0.81483E+02</wgt>
<wgt id='2029'>0.81808E+02</wgt>
<wgt id='2030'>0.81046E+02</wgt>
<wgt id='2031'>0.82450E+02</wgt>
<wgt id='2032'>0.80966E+02</wgt>
<wgt id='2033'>0.81487E+02</wgt>
<wgt id='2034'>0.81436E+02</wgt>
<wgt id='2035'>0.80992E+02</wgt>
<wgt id='2036'>0.80508E+02</wgt>
<wgt id='2037'>0.81278E+02</wgt>
<wgt id='2038'>0.80957E+02</wgt>
<wgt id='2039'>0.81231E+02</wgt>
<wgt id='2040'>0.81145E+02</wgt>
<wgt id='2041'>0.81185E+02</wgt>
<wgt id='2042'>0.80780E+02</wgt>
<wgt id='2043'>0.81183E+02</wgt>
<wgt id='2044'>0.80919E+02</wgt>
<wgt id='2045'>0.81137E+02</wgt>
<wgt id='2046'>0.81230E+02</wgt>
<wgt id='2047'>0.81118E+02</wgt>
<wgt id='2048'>0.81031E+02</wgt>
<wgt id='2049'>0.80896E+02</wgt>
<wgt id='2050'>0.80893E+02</wgt>
<wgt id='2051'>0.81146E+02</wgt>
<wgt id='2052'>0.81104E+02</wgt>
<wgt id='2053'>0.81163E+02</wgt>
<wgt id='2054'>0.81218E+02</wgt>
<wgt id='2055'>0.81157E+02</wgt>
<wgt id='2056'>0.80974E+02</wgt>
<wgt id='2057'>0.81276E+02</wgt>
<wgt id='2058'>0.81250E+02</wgt>
<wgt id='2059'>0.81303E+02</wgt>
<wgt id='2060'>0.81307E+02</wgt>
<wgt id='2061'>0.81178E+02</wgt>
<wgt id='2062'>0.81108E+02</wgt>
<wgt id='2063'>0.80885E+02</wgt>
<wgt id='2064'>0.81100E+02</wgt>
<wgt id='2065'>0.81294E+02</wgt>
<wgt id='2066'>0.81193E+02</wgt>
<wgt id='2067'>0.81136E+02</wgt>
<wgt id='2068'>0.81030E+02</wgt>
<wgt id='2069'>0.81051E+02</wgt>
<wgt id='2070'>0.81372E+02</wgt>
<wgt id='2071'>0.81208E+02</wgt>
<wgt id='2072'>0.80947E+02</wgt>
<wgt id='2073'>0.81037E+02</wgt>
<wgt id='2074'>0.81035E+02</wgt>
<wgt id='2075'>0.81126E+02</wgt>
<wgt id='2076'>0.81086E+02</wgt>
<wgt id='2077'>0.81127E+02</wgt>
<wgt id='2078'>0.81043E+02</wgt>
<wgt id='2079'>0.81104E+02</wgt>
<wgt id='2080'>0.81061E+02</wgt>
<wgt id='2081'>0.81074E+02</wgt>
<wgt id='2082'>0.81231E+02</wgt>
<wgt id='2083'>0.80971E+02</wgt>
<wgt id='2084'>0.81132E+02</wgt>
<wgt id='2085'>0.81062E+02</wgt>
<wgt id='2086'>0.81068E+02</wgt>
<wgt id='2087'>0.81152E+02</wgt>
<wgt id='2088'>0.81107E+02</wgt>
<wgt id='2089'>0.81123E+02</wgt>
<wgt id='2090'>0.81086E+02</wgt>
<wgt id='2091'>0.81069E+02</wgt>
<wgt id='2092'>0.81052E+02</wgt>
<wgt id='2093'>0.81041E+02</wgt>
<wgt id='2094'>0.81073E+02</wgt>
<wgt id='2095'>0.81067E+02</wgt>
<wgt id='2096'>0.81006E+02</wgt>
<wgt id='2097'>0.81070E+02</wgt>
<wgt id='2098'>0.81173E+02</wgt>
<wgt id='2099'>0.81130E+02</wgt>
<wgt id='2100'>0.81104E+02</wgt>
<wgt id='2101'>0.78651E+02</wgt>
<wgt id='2102'>0.83869E+02</wgt>
<wgt id='2200'>0.81115E+02</wgt>
<wgt id='2201'>0.69232E+02</wgt>
<wgt id='2202'>0.71254E+02</wgt>
<wgt id='2203'>0.73969E+02</wgt>
<wgt id='2204'>0.76667E+02</wgt>
<wgt id='2205'>0.80204E+02</wgt>
<wgt id='2206'>0.82313E+02</wgt>
<wgt id='2207'>0.86611E+02</wgt>
<wgt id='2208'>0.88642E+02</wgt>
<wgt id='2300'>0.82270E+02</wgt>
<wgt id='2301'>0.82183E+02</wgt>
<wgt id='2302'>0.82391E+02</wgt>
<wgt id='2303'>0.82270E+02</wgt>
<wgt id='2304'>0.82414E+02</wgt>
<wgt id='2305'>0.82419E+02</wgt>
<wgt id='2306'>0.81982E+02</wgt>
<wgt id='2307'>0.82526E+02</wgt>
<wgt id='2308'>0.82510E+02</wgt>
<wgt id='2309'>0.82596E+02</wgt>
<wgt id='2310'>0.81801E+02</wgt>
<wgt id='2311'>0.82060E+02</wgt>
<wgt id='2312'>0.82323E+02</wgt>
<wgt id='2313'>0.82600E+02</wgt>
<wgt id='2314'>0.82599E+02</wgt>
<wgt id='2315'>0.81743E+02</wgt>
<wgt id='2316'>0.82968E+02</wgt>
<wgt id='2317'>0.81928E+02</wgt>
<wgt id='2318'>0.82484E+02</wgt>
<wgt id='2319'>0.82014E+02</wgt>
<wgt id='2320'>0.81763E+02</wgt>
<wgt id='2321'>0.83063E+02</wgt>
<wgt id='2322'>0.82338E+02</wgt>
<wgt id='2323'>0.82225E+02</wgt>
<wgt id='2324'>0.82826E+02</wgt>
<wgt id='2325'>0.81788E+02</wgt>
<wgt id='2326'>0.82256E+02</wgt>
<wgt id='2327'>0.82080E+02</wgt>
<wgt id='2328'>0.82512E+02</wgt>
<wgt id='2329'>0.82688E+02</wgt>
<wgt id='2330'>0.81211E+02</wgt>
<wgt id='2331'>0.82192E+02</wgt>
<wgt id='2332'>0.82259E+02</wgt>
<wgt id='2333'>0.82708E+02</wgt>
<wgt id='2334'>0.81961E+02</wgt>
<wgt id='2335'>0.82393E+02</wgt>
<wgt id='2336'>0.82053E+02</wgt>
<wgt id='2337'>0.81971E+02</wgt>
<wgt id='2338'>0.81853E+02</wgt>
<wgt id='2339'>0.82436E+02</wgt>
<wgt id='2340'>0.82322E+02</wgt>
<wgt id='2341'>0.82109E+02</wgt>
<wgt id='2342'>0.82093E+02</wgt>
<wgt id='2343'>0.82576E+02</wgt>
<wgt id='2344'>0.82111E+02</wgt>
<wgt id='2345'>0.82183E+02</wgt>
<wgt id='2346'>0.82331E+02</wgt>
<wgt id='2347'>0.82550E+02</wgt>
<wgt id='2348'>0.82608E+02</wgt>
<wgt id='2349'>0.82070E+02</wgt>
<wgt id='2350'>0.82420E+02</wgt>
<wgt id='2351'>0.82471E+02</wgt>
<wgt id='2352'>0.82237E+02</wgt>
<wgt id='2353'>0.82205E+02</wgt>
<wgt id='2354'>0.82159E+02</wgt>
<wgt id='2355'>0.82271E+02</wgt>
<wgt id='2356'>0.81972E+02</wgt>
<wgt id='2357'>0.82295E+02</wgt>
<wgt id='2358'>0.82259E+02</wgt>
<wgt id='2359'>0.82403E+02</wgt>
<wgt id='2360'>0.82176E+02</wgt>
<wgt id='2361'>0.82384E+02</wgt>
<wgt id='2362'>0.82347E+02</wgt>
<wgt id='2363'>0.82501E+02</wgt>
<wgt id='2364'>0.82226E+02</wgt>
<wgt id='2365'>0.82311E+02</wgt>
<wgt id='2366'>0.82554E+02</wgt>
<wgt id='2367'>0.82000E+02</wgt>
<wgt id='2368'>0.82203E+02</wgt>
<wgt id='2369'>0.82297E+02</wgt>
<wgt id='2370'>0.82267E+02</wgt>
<wgt id='2371'>0.82335E+02</wgt>
<wgt id='2372'>0.82253E+02</wgt>
<wgt id='2373'>0.82092E+02</wgt>
<wgt id='2374'>0.82400E+02</wgt>
<wgt id='2375'>0.82537E+02</wgt>
<wgt id='2376'>0.82350E+02</wgt>
<wgt id='2377'>0.82262E+02</wgt>
<wgt id='2378'>0.82314E+02</wgt>
<wgt id='2379'>0.82429E+02</wgt>
<wgt id='2380'>0.82221E+02</wgt>
<wgt id='2381'>0.82198E+02</wgt>
<wgt id='2382'>0.82168E+02</wgt>
<wgt id='2383'>0.82122E+02</wgt>
<wgt id='2384'>0.82339E+02</wgt>
<wgt id='2385'>0.82165E+02</wgt>
<wgt id='2386'>0.82285E+02</wgt>
<wgt id='2387'>0.82115E+02</wgt>
<wgt id='2388'>0.82301E+02</wgt>
<wgt id='2389'>0.82337E+02</wgt>
<wgt id='2390'>0.82279E+02</wgt>
<wgt id='2391'>0.82366E+02</wgt>
<wgt id='2392'>0.82249E+02</wgt>
<wgt id='2393'>0.82356E+02</wgt>
<wgt id='2394'>0.82236E+02</wgt>
<wgt id='2395'>0.82187E+02</wgt>
<wgt id='2396'>0.82210E+02</wgt>
<wgt id='2397'>0.82212E+02</wgt>
<wgt id='2398'>0.82299E+02</wgt>
<wgt id='2399'>0.82238E+02</wgt>
<wgt id='2400'>0.82354E+02</wgt>
<wgt id='2401'>0.79608E+02</wgt>
<wgt id='2402'>0.84961E+02</wgt>
<wgt id='2500'>0.77619E+02</wgt>
<wgt id='2501'>0.78112E+02</wgt>
<wgt id='2600'>0.79716E+02</wgt>
<wgt id='2601'>0.79714E+02</wgt>
<wgt id='2602'>0.79497E+02</wgt>
<wgt id='2603'>0.79878E+02</wgt>
<wgt id='2604'>0.79540E+02</wgt>
<wgt id='2605'>0.78443E+02</wgt>
<wgt id='2606'>0.80496E+02</wgt>
<wgt id='2607'>0.79966E+02</wgt>
<wgt id='2608'>0.79567E+02</wgt>
<wgt id='2609'>0.79853E+02</wgt>
<wgt id='2610'>0.79862E+02</wgt>
<wgt id='2611'>0.78698E+02</wgt>
<wgt id='2612'>0.79580E+02</wgt>
<wgt id='2613'>0.79454E+02</wgt>
<wgt id='2614'>0.78916E+02</wgt>
<wgt id='2615'>0.80046E+02</wgt>
<wgt id='2616'>0.79999E+02</wgt>
<wgt id='2617'>0.80036E+02</wgt>
<wgt id='2618'>0.79580E+02</wgt>
<wgt id='2619'>0.79630E+02</wgt>
<wgt id='2620'>0.79701E+02</wgt>
<wgt id='2621'>0.79687E+02</wgt>
<wgt id='2622'>0.79523E+02</wgt>
<wgt id='2623'>0.79906E+02</wgt>
<wgt id='2624'>0.79486E+02</wgt>
<wgt id='2625'>0.79579E+02</wgt>
<wgt id='2626'>0.79544E+02</wgt>
<wgt id='2627'>0.79778E+02</wgt>
<wgt id='2628'>0.79908E+02</wgt>
<wgt id='2629'>0.79577E+02</wgt>
<wgt id='2630'>0.79641E+02</wgt>
<wgt id='2631'>0.79547E+02</wgt>
<wgt id='2632'>0.79673E+02</wgt>
<wgt id='2633'>0.79595E+02</wgt>
<wgt id='2634'>0.79731E+02</wgt>
<wgt id='2635'>0.79577E+02</wgt>
<wgt id='2636'>0.79645E+02</wgt>
<wgt id='2637'>0.79676E+02</wgt>
<wgt id='2638'>0.79755E+02</wgt>
<wgt id='2639'>0.79769E+02</wgt>
<wgt id='2640'>0.79706E+02</wgt>
<wgt id='2641'>0.79622E+02</wgt>
<wgt id='2642'>0.79794E+02</wgt>
<wgt id='2643'>0.79757E+02</wgt>
<wgt id='2644'>0.79749E+02</wgt>
<wgt id='2645'>0.79755E+02</wgt>
<wgt id='2646'>0.79725E+02</wgt>
<wgt id='2647'>0.79749E+02</wgt>
<wgt id='2648'>0.79699E+02</wgt>
<wgt id='2649'>0.79699E+02</wgt>
<wgt id='2650'>0.79732E+02</wgt>
<wgt id='2651'>0.79395E+02</wgt>
<wgt id='2652'>0.80267E+02</wgt>
<wgt id='2700'>0.79452E+02</wgt>
<wgt id='2701'>0.79395E+02</wgt>
<wgt id='2702'>0.79365E+02</wgt>
<wgt id='2703'>0.79742E+02</wgt>
<wgt id='2704'>0.80267E+02</wgt>
<wgt id='2705'>0.80652E+02</wgt>
<wgt id='2800'>0.85551E+02</wgt>
<wgt id='4000'>0.78678E+02</wgt>
<wgt id='4001'>0.78309E+02</wgt>
<wgt id='4002'>0.76940E+02</wgt>
<wgt id='4003'>0.77574E+02</wgt>
<wgt id='4004'>0.80488E+02</wgt>
<wgt id='4005'>0.76229E+02</wgt>
<wgt id='4006'>0.80744E+02</wgt>
<wgt id='4007'>0.77250E+02</wgt>
<wgt id='4008'>0.80022E+02</wgt>
<wgt id='4009'>0.75681E+02</wgt>
<wgt id='4010'>0.81128E+02</wgt>
<wgt id='4011'>0.79520E+02</wgt>
<wgt id='4012'>0.79085E+02</wgt>
<wgt id='4013'>0.78467E+02</wgt>
<wgt id='4014'>0.78285E+02</wgt>
<wgt id='4015'>0.78843E+02</wgt>
<wgt id='4016'>0.77785E+02</wgt>
<wgt id='4017'>0.80292E+02</wgt>
<wgt id='4018'>0.76877E+02</wgt>
<wgt id='4019'>0.80992E+02</wgt>
<wgt id='4020'>0.74744E+02</wgt>
<wgt id='4021'>0.79003E+02</wgt>
<wgt id='4022'>0.78208E+02</wgt>
<wgt id='4023'>0.78973E+02</wgt>
<wgt id='4024'>0.77834E+02</wgt>
<wgt id='4025'>0.78551E+02</wgt>
<wgt id='4026'>0.79258E+02</wgt>
<wgt id='4027'>0.77503E+02</wgt>
<wgt id='4028'>0.79354E+02</wgt>
<wgt id='4029'>0.78641E+02</wgt>
<wgt id='4030'>0.77241E+02</wgt>
<wgt id='4031'>0.78914E+02</wgt>
<wgt id='4032'>0.78464E+02</wgt>
<wgt id='4033'>0.77902E+02</wgt>
<wgt id='4034'>0.78779E+02</wgt>
<wgt id='4035'>0.78108E+02</wgt>
<wgt id='4036'>0.78719E+02</wgt>
<wgt id='4037'>0.77197E+02</wgt>
<wgt id='4038'>0.79363E+02</wgt>
<wgt id='4039'>0.77489E+02</wgt>
<wgt id='4040'>0.79364E+02</wgt>
<wgt id='4041'>0.80099E+02</wgt>
<wgt id='4042'>0.76740E+02</wgt>
<wgt id='4043'>0.78236E+02</wgt>
<wgt id='4044'>0.78304E+02</wgt>
<wgt id='4045'>0.76963E+02</wgt>
<wgt id='4046'>0.79647E+02</wgt>
<wgt id='4047'>0.78069E+02</wgt>
<wgt id='4048'>0.78526E+02</wgt>
<wgt id='4049'>0.79070E+02</wgt>
<wgt id='4050'>0.77563E+02</wgt>
<wgt id='4051'>0.77713E+02</wgt>
<wgt id='4052'>0.78669E+02</wgt>
<wgt id='4053'>0.79448E+02</wgt>
<wgt id='4054'>0.77660E+02</wgt>
<wgt id='4055'>0.78242E+02</wgt>
<wgt id='4056'>0.77648E+02</wgt>
<wgt id='4057'>0.78360E+02</wgt>
<wgt id='4058'>0.78903E+02</wgt>
<wgt id='4100'>0.79007E+02</wgt>
<wgt id='4101'>0.78839E+02</wgt>
<wgt id='4102'>0.78533E+02</wgt>
<wgt id='4103'>0.78410E+02</wgt>
<wgt id='4200'>0.79971E+02</wgt>
<wgt id='4201'>0.78401E+02</wgt>
<wgt id='4202'>0.79731E+02</wgt>
<wgt id='4203'>0.80373E+02</wgt>
<wgt id='4204'>0.80775E+02</wgt>
<wgt id='4205'>0.81006E+02</wgt>
<wgt id='4206'>0.78101E+02</wgt>
<wgt id='4207'>0.79009E+02</wgt>
<wgt id='4208'>0.79223E+02</wgt>
<wgt id='4209'>0.79755E+02</wgt>
<wgt id='4210'>0.80292E+02</wgt>
<wgt id='4211'>0.80546E+02</wgt>
<wgt id='4212'>0.79649E+02</wgt>
<wgt id='4213'>0.81382E+02</wgt>
<wgt id='4214'>0.78187E+02</wgt>
<wgt id='4215'>0.81183E+02</wgt>
<wgt id='4216'>0.78915E+02</wgt>
<wgt id='4217'>0.79113E+02</wgt>
<wgt id='4218'>0.81081E+02</wgt>
<wgt id='4219'>0.80293E+02</wgt>
<wgt id='4220'>0.79299E+02</wgt>
<wgt id='4221'>0.81327E+02</wgt>
<wgt id='4222'>0.79285E+02</wgt>
<wgt id='4223'>0.77556E+02</wgt>
<wgt id='4224'>0.82188E+02</wgt>
<wgt id='4225'>0.80826E+02</wgt>
<wgt id='4226'>0.78651E+02</wgt>
<wgt id='4227'>0.79965E+02</wgt>
<wgt id='4228'>0.79813E+02</wgt>
<wgt id='4229'>0.79273E+02</wgt>
<wgt id='4230'>0.79861E+02</wgt>
<wgt id='4231'>0.81405E+02</wgt>
<wgt id='4232'>0.77433E+02</wgt>
<wgt id='4233'>0.79644E+02</wgt>
<wgt id='4234'>0.80724E+02</wgt>
<wgt id='4235'>0.79043E+02</wgt>
<wgt id='4236'>0.79846E+02</wgt>
<wgt id='4237'>0.80815E+02</wgt>
<wgt id='4238'>0.79269E+02</wgt>
<wgt id='4239'>0.78521E+02</wgt>
<wgt id='4240'>0.80276E+02</wgt>
<wgt id='4241'>0.80205E+02</wgt>
<wgt id='4242'>0.79021E+02</wgt>
<wgt id='4243'>0.77983E+02</wgt>
<wgt id='4244'>0.82629E+02</wgt>
<wgt id='4245'>0.78775E+02</wgt>
<wgt id='4246'>0.81079E+02</wgt>
<wgt id='4247'>0.79082E+02</wgt>
<wgt id='4248'>0.81077E+02</wgt>
<wgt id='4249'>0.78742E+02</wgt>
<wgt id='4250'>0.80923E+02</wgt>
<wgt id='4251'>0.77634E+02</wgt>
<wgt id='4252'>0.81772E+02</wgt>
<wgt id='4253'>0.81386E+02</wgt>
<wgt id='4254'>0.78266E+02</wgt>
<wgt id='4255'>0.78770E+02</wgt>
<wgt id='4256'>0.79823E+02</wgt>
<wgt id='4257'>0.79358E+02</wgt>
<wgt id='4258'>0.80151E+02</wgt>
<wgt id='4300'>0.77380E+02</wgt>
<wgt id='4301'>0.79249E+02</wgt>
<wgt id='5000'>0.76453E+02</wgt>
<wgt id='5001'>0.75954E+02</wgt>
<wgt id='5002'>0.77095E+02</wgt>
<wgt id='5003'>0.76146E+02</wgt>
<wgt id='5004'>0.76733E+02</wgt>
<wgt id='5005'>0.76322E+02</wgt>
<wgt id='5006'>0.76667E+02</wgt>
<wgt id='5007'>0.76948E+02</wgt>
<wgt id='5008'>0.76051E+02</wgt>
<wgt id='5009'>0.76659E+02</wgt>
<wgt id='5010'>0.76241E+02</wgt>
<wgt id='5011'>0.75536E+02</wgt>
<wgt id='5012'>0.77343E+02</wgt>
<wgt id='5013'>0.76788E+02</wgt>
<wgt id='5014'>0.76215E+02</wgt>
<wgt id='5015'>0.76939E+02</wgt>
<wgt id='5016'>0.76939E+02</wgt>
<wgt id='5017'>0.76146E+02</wgt>
<wgt id='5018'>0.76660E+02</wgt>
<wgt id='5019'>0.75839E+02</wgt>
<wgt id='5020'>0.77306E+02</wgt>
<wgt id='5021'>0.76354E+02</wgt>
<wgt id='5022'>0.76588E+02</wgt>
<wgt id='5023'>0.76527E+02</wgt>
<wgt id='5024'>0.76271E+02</wgt>
<wgt id='5025'>0.76645E+02</wgt>
<wgt id='5026'>0.76242E+02</wgt>
<wgt id='5027'>0.76886E+02</wgt>
<wgt id='5028'>0.75281E+02</wgt>
<wgt id='5029'>0.76220E+02</wgt>
<wgt id='5030'>0.76580E+02</wgt>
<wgt id='5031'>0.77076E+02</wgt>
<wgt id='5032'>0.74642E+02</wgt>
<wgt id='5033'>0.76775E+02</wgt>
<wgt id='5034'>0.76109E+02</wgt>
<wgt id='5035'>0.76119E+02</wgt>
<wgt id='5036'>0.76907E+02</wgt>
<wgt id='5037'>0.76406E+02</wgt>
<wgt id='5038'>0.76475E+02</wgt>
<wgt id='5039'>0.75715E+02</wgt>
<wgt id='5040'>0.78279E+02</wgt>
<wgt id='5041'>0.77056E+02</wgt>
<wgt id='5042'>0.75807E+02</wgt>
<wgt id='5043'>0.77337E+02</wgt>
<wgt id='5044'>0.75594E+02</wgt>
<wgt id='5045'>0.76165E+02</wgt>
<wgt id='5046'>0.77047E+02</wgt>
<wgt id='5047'>0.76371E+02</wgt>
<wgt id='5048'>0.76644E+02</wgt>
<wgt id='5049'>0.76598E+02</wgt>
<wgt id='5050'>0.76143E+02</wgt>
<wgt id='5051'>0.76367E+02</wgt>
<wgt id='5052'>0.76489E+02</wgt>
<wgt id='5053'>0.76192E+02</wgt>
<wgt id='5054'>0.76560E+02</wgt>
<wgt id='5055'>0.75966E+02</wgt>
<wgt id='5056'>0.77264E+02</wgt>
<wgt id='5057'>0.75031E+02</wgt>
<wgt id='5058'>0.77358E+02</wgt>
<wgt id='5059'>0.76381E+02</wgt>
<wgt id='5060'>0.76474E+02</wgt>
<wgt id='5061'>0.75641E+02</wgt>
<wgt id='5062'>0.76376E+02</wgt>
<wgt id='5063'>0.77333E+02</wgt>
<wgt id='5064'>0.76531E+02</wgt>
<wgt id='5100'>0.76453E+02</wgt>
<wgt id='5101'>0.76663E+02</wgt>
<wgt id='6000'>0.77387E+02</wgt>
<wgt id='6001'>0.77110E+02</wgt>
<wgt id='6002'>0.76178E+02</wgt>
<wgt id='6003'>0.77206E+02</wgt>
<wgt id='6004'>0.76446E+02</wgt>
<wgt id='6005'>0.77542E+02</wgt>
<wgt id='6006'>0.77199E+02</wgt>
<wgt id='6007'>0.77510E+02</wgt>
<wgt id='6008'>0.77307E+02</wgt>
<wgt id='6009'>0.77605E+02</wgt>
<wgt id='6010'>0.77735E+02</wgt>
<wgt id='6011'>0.77144E+02</wgt>
<wgt id='6012'>0.77625E+02</wgt>
<wgt id='6013'>0.78091E+02</wgt>
<wgt id='6014'>0.77492E+02</wgt>
<wgt id='6015'>0.77655E+02</wgt>
<wgt id='6016'>0.78243E+02</wgt>
<wgt id='6017'>0.78909E+02</wgt>
<wgt id='6018'>0.77850E+02</wgt>
<wgt id='6019'>0.77298E+02</wgt>
<wgt id='6020'>0.77422E+02</wgt>
<wgt id='6021'>0.75599E+02</wgt>
<wgt id='6022'>0.77310E+02</wgt>
<wgt id='6023'>0.77498E+02</wgt>
<wgt id='6024'>0.77495E+02</wgt>
<wgt id='6025'>0.76791E+02</wgt>
<wgt id='6026'>0.77293E+02</wgt>
<wgt id='6027'>0.77111E+02</wgt>
<wgt id='6028'>0.77207E+02</wgt>
<wgt id='6029'>0.76627E+02</wgt>
<wgt id='6030'>0.77489E+02</wgt>
<wgt id='6031'>0.77299E+02</wgt>
<wgt id='6032'>0.77287E+02</wgt>
<wgt id='6033'>0.77298E+02</wgt>
<wgt id='6034'>0.77465E+02</wgt>
<wgt id='6035'>0.77297E+02</wgt>
<wgt id='6036'>0.77311E+02</wgt>
<wgt id='6037'>0.77374E+02</wgt>
<wgt id='6038'>0.77630E+02</wgt>
<wgt id='6039'>0.77339E+02</wgt>
<wgt id='6040'>0.78248E+02</wgt>
<wgt id='6041'>0.76515E+02</wgt>
<wgt id='6042'>0.79136E+02</wgt>
<wgt id='7000'>0.71852E+02</wgt>
<wgt id='7001'>0.71950E+02</wgt>
<wgt id='7002'>0.71701E+02</wgt>
<wgt id='7003'>0.71635E+02</wgt>
<wgt id='7004'>0.72016E+02</wgt>
<wgt id='7005'>0.71857E+02</wgt>
<wgt id='7006'>0.71793E+02</wgt>
<wgt id='7007'>0.71434E+02</wgt>
<wgt id='7008'>0.72207E+02</wgt>
<wgt id='7009'>0.72003E+02</wgt>
<wgt id='7010'>0.71645E+02</wgt>
<wgt id='7011'>0.71699E+02</wgt>
<wgt id='7012'>0.71924E+02</wgt>
<wgt id='7013'>0.71799E+02</wgt>
<wgt id='7014'>0.71846E+02</wgt>
<wgt id='7015'>0.71737E+02</wgt>
<wgt id='7016'>0.71830E+02</wgt>
<wgt id='7017'>0.71592E+02</wgt>
<wgt id='7018'>0.72047E+02</wgt>
<wgt id='7019'>0.70724E+02</wgt>
<wgt id='7020'>0.72871E+02</wgt>
<wgt id='7021'>0.72349E+02</wgt>
<wgt id='7022'>0.71270E+02</wgt>
<wgt id='7023'>0.73090E+02</wgt>
<wgt id='7024'>0.70630E+02</wgt>
<wgt id='7025'>0.73309E+02</wgt>
<wgt id='7026'>0.70488E+02</wgt>
<wgt id='7027'>0.72884E+02</wgt>
<wgt id='7028'>0.70883E+02</wgt>
<wgt id='8000'>0.73804E+02</wgt>
<wgt id='8001'>0.73790E+02</wgt>
<wgt id='8002'>0.73822E+02</wgt>
<wgt id='8003'>0.73671E+02</wgt>
<wgt id='8004'>0.73809E+02</wgt>
<wgt id='8005'>0.74052E+02</wgt>
<wgt id='8006'>0.73336E+02</wgt>
<wgt id='8007'>0.74083E+02</wgt>
<wgt id='8008'>0.73831E+02</wgt>
<wgt id='8009'>0.73299E+02</wgt>
<wgt id='8010'>0.73756E+02</wgt>
<wgt id='8011'>0.73913E+02</wgt>
<wgt id='8012'>0.74011E+02</wgt>
<wgt id='8013'>0.73831E+02</wgt>
<wgt id='8014'>0.73820E+02</wgt>
<wgt id='8015'>0.73727E+02</wgt>
<wgt id='8016'>0.73503E+02</wgt>
<wgt id='8017'>0.73663E+02</wgt>
<wgt id='8018'>0.73770E+02</wgt>
<wgt id='8019'>0.73979E+02</wgt>
<wgt id='8020'>0.73926E+02</wgt>
<wgt id='8021'>0.73490E+02</wgt>
<wgt id='8022'>0.73781E+02</wgt>
<wgt id='8023'>0.74345E+02</wgt>
<wgt id='8024'>0.74084E+02</wgt>
<wgt id='8025'>0.73665E+02</wgt>
<wgt id='8026'>0.74036E+02</wgt>
<wgt id='8027'>0.74103E+02</wgt>
<wgt id='8028'>0.73319E+02</wgt>
<wgt id='8029'>0.73135E+02</wgt>
<wgt id='3000'>0.81104E+02</wgt>
<wgt id='3001'>0.91667E+02</wgt>
<wgt id='3002'>0.83109E+02</wgt>
<wgt id='3003'>0.79446E+02</wgt>
<wgt id='3004'>0.80315E+02</wgt>
<wgt id='3005'>0.80238E+02</wgt>
<wgt id='3006'>0.85140E+02</wgt>
<wgt id='3007'>0.83751E+02</wgt>
<wgt id='3008'>0.77659E+02</wgt>
<wgt id='3009'>0.80181E+02</wgt>
<wgt id='3010'>0.78043E+02</wgt>
<wgt id='3011'>0.78452E+02</wgt>
<wgt id='3012'>0.78651E+02</wgt>
<wgt id='3013'>0.78257E+02</wgt>
<wgt id='3014'>0.81057E+02</wgt>
<wgt id='3015'>0.81779E+02</wgt>
<wgt id='3016'>0.80432E+02</wgt>
<wgt id='3017'>0.83254E+02</wgt>
<wgt id='3018'>0.81128E+02</wgt>
<wgt id='3019'>0.82895E+02</wgt>
<wgt id='3020'>0.76385E+02</wgt>
<wgt id='3021'>0.81945E+02</wgt>
<wgt id='3022'>0.83624E+02</wgt>
<wgt id='3023'>0.84814E+02</wgt>
<wgt id='3024'>0.78592E+02</wgt>
<wgt id='3025'>0.81633E+02</wgt>
<wgt id='3026'>0.81313E+02</wgt>
<wgt id='3027'>0.85601E+02</wgt>
<wgt id='3028'>0.80973E+02</wgt>
<wgt id='3029'>0.80403E+02</wgt>
<wgt id='3030'>0.83918E+02</wgt>
<wgt id='3031'>0.82886E+02</wgt>
<wgt id='3032'>0.79868E+02</wgt>
<wgt id='3033'>0.87548E+02</wgt>
<wgt id='3034'>0.75124E+02</wgt>
<wgt id='3035'>0.80788E+02</wgt>
<wgt id='3036'>0.82236E+02</wgt>
<wgt id='3037'>0.81068E+02</wgt>
<wgt id='3038'>0.79650E+02</wgt>
<wgt id='3039'>0.79460E+02</wgt>
<wgt id='3040'>0.80438E+02</wgt>
<wgt id='3041'>0.81879E+02</wgt>
<wgt id='3042'>0.82363E+02</wgt>
<wgt id='3043'>0.83253E+02</wgt>
<wgt id='3044'>0.83224E+02</wgt>
<wgt id='3045'>0.81008E+02</wgt>
<wgt id='3046'>0.80364E+02</wgt>
<wgt id='3047'>0.80683E+02</wgt>
<wgt id='3048'>0.78010E+02</wgt>
<wgt id='3049'>0.83137E+02</wgt>
<wgt id='3050'>0.80935E+02</wgt>
<wgt id='3051'>0.79993E+02</wgt>
<wgt id='3052'>0.81809E+02</wgt>
<wgt id='3053'>0.79971E+02</wgt>
<wgt id='3054'>0.84664E+02</wgt>
<wgt id='3055'>0.82589E+02</wgt>
<wgt id='3056'>0.83030E+02</wgt>
<wgt id='3057'>0.85470E+02</wgt>
<wgt id='3058'>0.83812E+02</wgt>
<wgt id='3059'>0.81171E+02</wgt>
<wgt id='3060'>0.84871E+02</wgt>
<wgt id='3061'>0.81956E+02</wgt>
<wgt id='3062'>0.81610E+02</wgt>
<wgt id='3063'>0.78629E+02</wgt>
<wgt id='3064'>0.77134E+02</wgt>
<wgt id='3065'>0.84377E+02</wgt>
<wgt id='3066'>0.83532E+02</wgt>
<wgt id='3067'>0.84274E+02</wgt>
<wgt id='3068'>0.82796E+02</wgt>
<wgt id='3069'>0.80012E+02</wgt>
<wgt id='3070'>0.78739E+02</wgt>
<wgt id='3071'>0.82070E+02</wgt>
<wgt id='3072'>0.79771E+02</wgt>
<wgt id='3073'>0.76954E+02</wgt>
<wgt id='3074'>0.76413E+02</wgt>
<wgt id='3075'>0.77319E+02</wgt>
<wgt id='3076'>0.84466E+02</wgt>
<wgt id='3077'>0.79191E+02</wgt>
<wgt id='3078'>0.82979E+02</wgt>
<wgt id='3079'>0.78942E+02</wgt>
<wgt id='3080'>0.78045E+02</wgt>
<wgt id='3081'>0.81828E+02</wgt>
<wgt id='3082'>0.80432E+02</wgt>
<wgt id='3083'>0.76460E+02</wgt>
<wgt id='3084'>0.78771E+02</wgt>
<wgt id='3085'>0.80345E+02</wgt>
<wgt id='3086'>0.86387E+02</wgt>
<wgt id='3087'>0.79355E+02</wgt>
<wgt id='3088'>0.81465E+02</wgt>
<wgt id='3089'>0.67126E+02</wgt>
<wgt id='3090'>0.79771E+02</wgt>
<wgt id='3091'>0.84167E+02</wgt>
<wgt id='3092'>0.76362E+02</wgt>
<wgt id='3093'>0.78547E+02</wgt>
<wgt id='3094'>0.83178E+02</wgt>
<wgt id='3095'>0.83049E+02</wgt>
<wgt id='3096'>0.82727E+02</wgt>
<wgt id='3097'>0.82506E+02</wgt>
<wgt id='3098'>0.80683E+02</wgt>
<wgt id='3099'>0.80261E+02</wgt>
<wgt id='3100'>0.83426E+02</wgt>
<wgt id='3200'>0.79796E+02</wgt>
<wgt id='3201'>0.79355E+02</wgt>
<wgt id='3202'>0.82063E+02</wgt>
<wgt id='3203'>0.77720E+02</wgt>
<wgt id='3204'>0.83645E+02</wgt>
<wgt id='3205'>0.82871E+02</wgt>
<wgt id='3206'>0.77488E+02</wgt>
<wgt id='3207'>0.76859E+02</wgt>
<wgt id='3208'>0.79973E+02</wgt>
<wgt id='3209'>0.82264E+02</wgt>
<wgt id='3210'>0.76233E+02</wgt>
<wgt id='3211'>0.78807E+02</wgt>
<wgt id='3212'>0.79374E+02</wgt>
<wgt id='3213'>0.77691E+02</wgt>
<wgt id='3214'>0.83524E+02</wgt>
<wgt id='3215'>0.78933E+02</wgt>
<wgt id='3216'>0.80235E+02</wgt>
<wgt id='3217'>0.79393E+02</wgt>
<wgt id='3218'>0.79767E+02</wgt>
<wgt id='3219'>0.79368E+02</wgt>
<wgt id='3220'>0.76704E+02</wgt>
<wgt id='3221'>0.78270E+02</wgt>
<wgt id='3222'>0.77423E+02</wgt>
<wgt id='3223'>0.77736E+02</wgt>
<wgt id='3224'>0.80675E+02</wgt>
<wgt id='3225'>0.82956E+02</wgt>
<wgt id='3226'>0.76651E+02</wgt>
<wgt id='3227'>0.80896E+02</wgt>
<wgt id='3228'>0.82378E+02</wgt>
<wgt id='3229'>0.79307E+02</wgt>
<wgt id='3230'>0.80302E+02</wgt>
<wgt id='3231'>0.79263E+02</wgt>
<wgt id='3232'>0.82213E+02</wgt>
<wgt id='3233'>0.83611E+02</wgt>
<wgt id='3234'>0.77886E+02</wgt>
<wgt id='3235'>0.75602E+02</wgt>
<wgt id='3236'>0.78230E+02</wgt>
<wgt id='3237'>0.82058E+02</wgt>
<wgt id='3238'>0.81909E+02</wgt>
<wgt id='3239'>0.81879E+02</wgt>
<wgt id='3240'>0.77495E+02</wgt>
<wgt id='3241'>0.84807E+02</wgt>
<wgt id='3242'>0.75928E+02</wgt>
<wgt id='3243'>0.81397E+02</wgt>
<wgt id='3244'>0.82705E+02</wgt>
<wgt id='3245'>0.78828E+02</wgt>
<wgt id='3246'>0.79432E+02</wgt>
<wgt id='3247'>0.80763E+02</wgt>
<wgt id='3248'>0.75935E+02</wgt>
<wgt id='3249'>0.81847E+02</wgt>
<wgt id='3250'>0.77429E+02</wgt>
<wgt id='3251'>0.78859E+02</wgt>
<wgt id='3252'>0.80707E+02</wgt>
<wgt id='3253'>0.80814E+02</wgt>
<wgt id='3254'>0.77700E+02</wgt>
<wgt id='3255'>0.75878E+02</wgt>
<wgt id='3256'>0.80278E+02</wgt>
<wgt id='3257'>0.72060E+02</wgt>
<wgt id='3258'>0.82271E+02</wgt>
<wgt id='3259'>0.82688E+02</wgt>
<wgt id='3260'>0.80861E+02</wgt>
<wgt id='3261'>0.80120E+02</wgt>
<wgt id='3262'>0.74950E+02</wgt>
<wgt id='3263'>0.79978E+02</wgt>
<wgt id='3264'>0.76220E+02</wgt>
<wgt id='3265'>0.78255E+02</wgt>
<wgt id='3266'>0.82058E+02</wgt>
<wgt id='3267'>0.78639E+02</wgt>
<wgt id='3268'>0.81195E+02</wgt>
<wgt id='3269'>0.80717E+02</wgt>
<wgt id='3270'>0.81956E+02</wgt>
<wgt id='3271'>0.77841E+02</wgt>
<wgt id='3272'>0.79838E+02</wgt>
<wgt id='3273'>0.77419E+02</wgt>
<wgt id='3274'>0.81236E+02</wgt>
<wgt id='3275'>0.82662E+02</wgt>
<wgt id='3276'>0.80634E+02</wgt>
<wgt id='3277'>0.81816E+02</wgt>
<wgt id='3278'>0.80429E+02</wgt>
<wgt id='3279'>0.80644E+02</wgt>
<wgt id='3280'>0.82154E+02</wgt>
<wgt id='3281'>0.80387E+02</wgt>
<wgt id='3282'>0.83253E+02</wgt>
<wgt id='3283'>0.77905E+02</wgt>
<wgt id='3284'>0.80522E+02</wgt>
<wgt id='3285'>0.79688E+02</wgt>
<wgt id='3286'>0.77901E+02</wgt>
<wgt id='3287'>0.77795E+02</wgt>
<wgt id='3288'>0.79705E+02</wgt>
<wgt id='3289'>0.79328E+02</wgt>
<wgt id='3290'>0.83385E+02</wgt>
<wgt id='3291'>0.78938E+02</wgt>
<wgt id='3292'>0.77921E+02</wgt>
<wgt id='3293'>0.79575E+02</wgt>
<wgt id='3294'>0.80694E+02</wgt>
<wgt id='3295'>0.80872E+02</wgt>
<wgt id='3296'>0.78086E+02</wgt>
<wgt id='3297'>0.83448E+02</wgt>
<wgt id='3298'>0.78786E+02</wgt>
<wgt id='3299'>0.79632E+02</wgt>
<wgt id='3300'>0.83517E+02</wgt>
<wgt id='3301'>0.79395E+02</wgt>
<wgt id='3302'>0.80267E+02</wgt>
<wgt id='3400'>0.80049E+02</wgt>
<wgt id='3401'>0.79951E+02</wgt>
<wgt id='3402'>0.82021E+02</wgt>
<wgt id='3403'>0.80268E+02</wgt>
<wgt id='3404'>0.79440E+02</wgt>
<wgt id='3405'>0.77886E+02</wgt>
<wgt id='3406'>0.80868E+02</wgt>
<wgt id='3407'>0.77370E+02</wgt>
<wgt id='3408'>0.78586E+02</wgt>
<wgt id='3409'>0.79971E+02</wgt>
<wgt id='3410'>0.82007E+02</wgt>
<wgt id='3411'>0.75646E+02</wgt>
<wgt id='3412'>0.77156E+02</wgt>
<wgt id='3413'>0.78034E+02</wgt>
<wgt id='3414'>0.83285E+02</wgt>
<wgt id='3415'>0.81557E+02</wgt>
<wgt id='3416'>0.81867E+02</wgt>
<wgt id='3417'>0.79687E+02</wgt>
<wgt id='3418'>0.80070E+02</wgt>
<wgt id='3419'>0.80554E+02</wgt>
<wgt id='3420'>0.81319E+02</wgt>
<wgt id='3421'>0.81956E+02</wgt>
<wgt id='3422'>0.80162E+02</wgt>
<wgt id='3423'>0.78770E+02</wgt>
<wgt id='3424'>0.79077E+02</wgt>
<wgt id='3425'>0.81181E+02</wgt>
<wgt id='3426'>0.81229E+02</wgt>
<wgt id='3427'>0.81107E+02</wgt>
<wgt id='3428'>0.81690E+02</wgt>
<wgt id='3429'>0.77903E+02</wgt>
<wgt id='3430'>0.76370E+02</wgt>
<wgt id='3431'>0.81861E+02</wgt>
<wgt id='3432'>0.81536E+02</wgt>
<wgt id='3433'>0.82369E+02</wgt>
<wgt id='3434'>0.79844E+02</wgt>
<wgt id='3435'>0.80774E+02</wgt>
<wgt id='3436'>0.83352E+02</wgt>
<wgt id='3437'>0.81023E+02</wgt>
<wgt id='3438'>0.82132E+02</wgt>
<wgt id='3439'>0.80472E+02</wgt>
<wgt id='3440'>0.81505E+02</wgt>
<wgt id='3441'>0.79981E+02</wgt>
<wgt id='3442'>0.78330E+02</wgt>
<wgt id='3443'>0.80261E+02</wgt>
<wgt id='3444'>0.78593E+02</wgt>
<wgt id='3445'>0.78842E+02</wgt>
<wgt id='3446'>0.79878E+02</wgt>
<wgt id='3447'>0.79753E+02</wgt>
<wgt id='3448'>0.84112E+02</wgt>
<wgt id='3449'>0.82630E+02</wgt>
<wgt id='3450'>0.79399E+02</wgt>
<wgt id='3451'>0.81155E+02</wgt>
<wgt id='3452'>0.79181E+02</wgt>
<wgt id='3453'>0.79105E+02</wgt>
<wgt id='3454'>0.76432E+02</wgt>
<wgt id='3455'>0.79918E+02</wgt>
<wgt id='3456'>0.79603E+02</wgt>
<wgt id='3457'>0.81618E+02</wgt>
<wgt id='3458'>0.78314E+02</wgt>
<wgt id='3459'>0.80914E+02</wgt>
<wgt id='3460'>0.80030E+02</wgt>
<wgt id='3461'>0.81947E+02</wgt>
<wgt id='3462'>0.79096E+02</wgt>
<wgt id='3463'>0.79225E+02</wgt>
<wgt id='3464'>0.80738E+02</wgt>
<wgt id='3465'>0.80418E+02</wgt>
<wgt id='3466'>0.81820E+02</wgt>
<wgt id='3467'>0.80211E+02</wgt>
<wgt id='3468'>0.81660E+02</wgt>
<wgt id='3469'>0.81766E+02</wgt>
<wgt id='3470'>0.80363E+02</wgt>
<wgt id='3471'>0.75997E+02</wgt>
<wgt id='3472'>0.75580E+02</wgt>
<wgt id='3473'>0.80542E+02</wgt>
<wgt id='3474'>0.79964E+02</wgt>
<wgt id='3475'>0.80325E+02</wgt>
<wgt id='3476'>0.83717E+02</wgt>
<wgt id='3477'>0.79006E+02</wgt>
<wgt id='3478'>0.80077E+02</wgt>
<wgt id='3479'>0.77147E+02</wgt>
<wgt id='3480'>0.81242E+02</wgt>
<wgt id='3481'>0.82880E+02</wgt>
<wgt id='3482'>0.80421E+02</wgt>
<wgt id='3483'>0.79566E+02</wgt>
<wgt id='3484'>0.80113E+02</wgt>
<wgt id='3485'>0.78455E+02</wgt>
<wgt id='3486'>0.80722E+02</wgt>
<wgt id='3487'>0.77759E+02</wgt>
<wgt id='3488'>0.78450E+02</wgt>
<wgt id='3489'>0.78776E+02</wgt>
<wgt id='3490'>0.77091E+02</wgt>
<wgt id='3491'>0.80934E+02</wgt>
<wgt id='3492'>0.80152E+02</wgt>
<wgt id='3493'>0.77110E+02</wgt>
<wgt id='3494'>0.82175E+02</wgt>
<wgt id='3495'>0.78402E+02</wgt>
<wgt id='3496'>0.79177E+02</wgt>
<wgt id='3497'>0.82138E+02</wgt>
<wgt id='3498'>0.80714E+02</wgt>
<wgt id='3499'>0.80549E+02</wgt>
<wgt id='3500'>0.78855E+02</wgt>
</rwgt>
</event>
<event>
     13 322200  8.11039E+01  4.31027E+01 -1.00000E+00  1.40735E-01
      21    -1     0     0   502   503  0.000000000E+00  0.000000000E+00  2.437377370E+02  2.437377370E+02  0.000000000E+00  0.00000E+00  9.000E+00
      21    -1     0     0   504   505  0.000000000E+00  0.000000000E+00 -1.999536176E+02  1.999536176E+02  0.000000000E+00  0.00000E+00  9.000E+00
       6     2     1     2   502     0  7.586353974E+01  1.224433232E+01  5.133405550E+01  1.956102927E+02  1.724035992E+02  0.00000E+00  9.000E+00
      -6     2     1     2     0   505 -4.936888123E+01 -4.624256772E+01 -4.539318235E+01  1.907229046E+02  1.724500618E+02  0.00000E+00  9.000E+00
      21     1     1     2   504   503 -2.649465851E+01  3.399823540E+01  3.784324623E+01  5.735815744E+01  1.066240300E-06  0.00000E+00  9.000E+00
      24     2     3     3     0     0  1.850981956E+00  8.184803393E-01 -3.026438360E+01  8.473956763E+01  7.912499834E+01  0.00000E+00  9.000E+00
       5     1     3     3   502     0  7.401255779E+01  1.142585198E+01  8.159843910E+01  1.108707250E+02  5.060000000E+00  0.00000E+00 -1.000E+00
     -24     2     4     4     0     0 -9.824950774E+01 -1.897457327E+01 -3.536881667E+01  1.336356847E+02  8.120679047E+01  0.00000E+00  9.000E+00
      -5     1     4     4     0   505  4.888062651E+01 -2.726799445E+01 -1.002436568E+01  5.708721990E+01  5.060000000E+00  0.00000E+00  1.000E+00
     -11     1     6     6     0     0 -2.801694914E+01  2.051852610E+01 -3.420489763E+01  4.874355727E+01  5.100000000E-04  0.00000E+00  1.000E+00
      12     1     6     6     0     0  2.986793110E+01 -1.970004576E+01  3.940514029E+00  3.599601036E+01  0.000000000E+00  0.00000E+00 -1.000E+00
      15     1     8     8     0     0 -6.554331472E+01 -4.250760620E+00  1.909389448E+01  6.842316572E+01  1.777000000E+00  0.00000E+00 -1.000E+00
     -16     1     8     8     0     0 -3.270619302E+01 -1.472381265E+01 -5.446271116E+01  6.521251894E+01  0.000000000E+00  0.00000E+00  1.000E+00
#rwgt            1           1   801.44979654406370               10       32871           0
<rwgt>
<wgt id='1001'>0.81104E+02</wgt>
<wgt id='1002'>0.93327E+02</wgt>
<wgt id='1003'>0.68204E+02</wgt>
<wgt id='1004'>0.69493E+02</wgt>
<wgt id='1005'>0.78579E+02</wgt>
<wgt id='1006'>0.59858E+02</wgt>
<wgt id='1007'>0.95897E+02</wgt>
<wgt id='1008'>0.11278E+03</wgt>
<wgt id='1009'>0.78162E+02</wgt>
<wgt id='2000'>0.81104E+02</wgt>
<wgt id='2001'>0.81259E+02</wgt>
<wgt id='2002'>0.80883E+02</wgt>
<wgt id='2003'>0.80940E+02</wgt>
<wgt id='2004'>0.81280E+02</wgt>
<wgt id='2005'>0.81288E+02</wgt>
<wgt id='2006'>0.81341E+02</wgt>
<wgt id='2007'>0.81465E+02</wgt>
<wgt id='2008'>0.81688E+02</wgt>
<wgt id='2009'>0.80958E+02</wgt>
<wgt id='2010'>0.81045E+02</wgt>
<wgt id='2011'>0.80490E+02</wgt>
<wgt id='2012'>0.81435E+02</wgt>
<wgt id='2013'>0.81184E+02</wgt>
<wgt id='2014'>0.81293E+02</wgt>
<wgt id='2015'>0.81244E+02</wgt>
<wgt id='2016'>0.81056E+02</wgt>
<wgt id='2017'>0.80904E+02</wgt>
<wgt id='2018'>0.81268E+02</wgt>
<wgt id='2019'>0.81673E+02</wgt>
<wgt id='2020'>0.80777E+02</wgt>
<wgt id='2021'>0.81282E+02</wgt>
<wgt id='2022'>0.80895E+02</wgt>
<wgt id='2023'>0.81223E+02</wgt>
<wgt id='2024'>0.81084E+02</wgt>
<wgt id='2025'>0.81009E+02</wgt>
<wgt id='2026'>0.81004E+02</wgt>
<wgt id='2027'>0.80926E+02</wgt>
<wgt id='2028'>0.81221E+02</wgt>
<wgt id='2029'>0.80885E+02</wgt>
<wgt id='2030'>0.81131E+02</wgt>
<wgt id='2031'>0.80866E+02</wgt>
<wgt id='2032'>0.81174E+02</wgt>
<wgt id='2033'>0.80987E+02</wgt>
<wgt id='2034'>0.80997E+02</wgt>
<wgt id='2035'>0.81093E+02</wgt>
<wgt id='2036'>0.81204E+02</wgt>
<wgt id='2037'>0.81102E+02</wgt>
<wgt id='2038'>0.81082E+02</wgt>
<wgt id='2039'>0.81132E+02</wgt>
<wgt id='2040'>0.81062E+02</wgt>
<wgt id='2041'>0.81136E+02</wgt>
<wgt id='2042'>0.81148E+02</wgt>
<wgt id='2043'>0.81063E+02</wgt>
<wgt id='2044'>0.81161E+02</wgt>
<wgt id='2045'>0.81098E+02</wgt>
<wgt id='2046'>0.81106E+02</wgt>
<wgt id='2047'>0.81096E+02</wgt>
<wgt id='2048'>0.81073E+02</wgt>
<wgt id='2049'>0.81057E+02</wgt>
<wgt id='2050'>0.81089E+02</wgt>
<wgt id='2051'>0.81102E+02</wgt>
<wgt id='2052'>0.81146E+02</wgt>
<wgt id='2053'>0.81077E+02</wgt>
<wgt id='2054'>0.81096E+02</wgt>
<wgt id='2055'>0.81130E+02</wgt>
<wgt id='2056'>0.81081E+02</wgt>
<wgt id='2057'>0.81131E+02</wgt>
<wgt id='2058'>0.81105E+02</wgt>
<wgt id='2059'>0.81121E+02</wgt>
<wgt id='2060'>0.81109E+02</wgt>
<wgt id='2061'>0.81103E+02</wgt>
<wgt id='2062'>0.81164E+02</wgt>
<wgt id='2063'>0.81116E+02</wgt>
<wgt id='2064'>0.81124E+02</wgt>
<wgt id='2065'>0.81157E+02</wgt>
<wgt id='2066'>0.81118E+02</wgt>
<wgt id='2067'>0.81127E+02</wgt>
<wgt id='2068'>0.81121E+02</wgt>
<wgt id='2069'>0.81110E+02</wgt>
<wgt id='2070'>0.81112E+02</wgt>
<wgt id='2071'>0.81112E+02</wgt>
<wgt id='2072'>0.81103E+02</wgt>
<wgt id='2073'>0.81122E+02</wgt>
<wgt id='2074'>0.81090E+02</wgt>
<wgt id='2075'>0.81090E+02</wgt>
<wgt id='2076'>0.81095E+02</wgt>
<wgt id='2077'>0.81148E+02</wgt>
<wgt id='2078'>0.81107E+02</wgt>
<wgt id='2079'>0.81089E+02</wgt>
<wgt id='2080'>0.81108E+02</wgt>
<wgt id='2081'>0.81089E+02</wgt>
<wgt id='2082'>0.81114E+02</wgt>
<wgt id='2083'>0.81127E+02</wgt>
<wgt id='2084'>0.81113E+02</wgt>
<wgt id='2085'>0.81099E+02</wgt>
<wgt id='2086'>0.81089E+02</wgt>
<wgt id='2087'>0.81115E+02</wgt>
<wgt id='2088'>0.81099E+02</wgt>
<wgt id='2089'>0.81099E+02</wgt>
<wgt id='2090'>0.81115E+02</wgt>
<wgt id='2091'>0.81105E+02</wgt>
<wgt id='2092'>0.81116E+02</wgt>
<wgt id='2093'>0.81089E+02</wgt>
<wgt id='2094'>0.81102E+02</wgt>
<wgt id='2095'>0.81112E+02</wgt>
<wgt id='2096'>0.81095E+02</wgt>
<wgt id='2097'>0.81107E+02</wgt>
<wgt id='2098'>0.81104E+02</wgt>
<wgt id='2099'>0.81114E+02</wgt>
<wgt id='2100'>0.81104E+02</wgt>
<wgt id='2101'>0.78795E+02</wgt>
<wgt id='2102'>0.83187E+02</wgt>
<wgt id='2200'>0.81133E+02</wgt>
<wgt id='2201'>0.71020E+02</wgt>
<wgt id='2202'>0.72881E+02</wgt>
<wgt id='2203'>0.75165E+02</wgt>
<wgt id='2204'>0.77375E+02</wgt>
<wgt id='2205'>0.80273E+02</wgt>
<wgt id='2206'>0.82388E+02</wgt>
<wgt id='2207'>0.84895E+02</wgt>
<wgt id='2208'>0.86965E+02</wgt>
<wgt id='2300'>0.84594E+02</wgt>
<wgt id='2301'>0.84782E+02</wgt>
<wgt id='2302'>0.84465E+02</wgt>
<wgt id='2303'>0.84789E+02</wgt>
<wgt id='2304'>0.84786E+02</wgt>
<wgt id='2305'>0.84960E+02</wgt>
<wgt id='2306'>0.84623E+02</wgt>
<wgt id='2307'>0.84939E+02</wgt>
<wgt id='2308'>0.84452E+02</wgt>
<wgt id='2309'>0.84883E+02</wgt>
<wgt id='2310'>0.84341E+02</wgt>
<wgt id='2311'>0.84514E+02</wgt>
<wgt id='2312'>0.84992E+02</wgt>
<wgt id='2313'>0.84329E+02</wgt>
<wgt id='2314'>0.84938E+02</wgt>
<wgt id='2315'>0.84560E+02</wgt>
<wgt id='2316'>0.84681E+02</wgt>
<wgt id='2317'>0.84954E+02</wgt>
<wgt id='2318'>0.84879E+02</wgt>
<wgt id='2319'>0.84113E+02</wgt>
<wgt id='2320'>0.84244E+02</wgt>
<wgt id='2321'>0.84133E+02</wgt>
<wgt id='2322'>0.84559E+02</wgt>
<wgt id='2323'>0.84343E+02</wgt>
<wgt id='2324'>0.84301E+02</wgt>
<wgt id='2325'>0.84586E+02</wgt>
<wgt id='2326'>0.84773E+02</wgt>
<wgt id='2327'>0.84625E+02</wgt>
<wgt id='2328'>0.84308E+02</wgt>
<wgt id='2329'>0.84556E+02</wgt>
<wgt id='2330'>0.84732E+02</wgt>
<wgt id='2331'>0.84650E+02</wgt>
<wgt id='2332'>0.84632E+02</wgt>
<wgt id='2333'>0.84632E+02</wgt>
<wgt id='2334'>0.84637E+02</wgt>
<wgt id='2335'>0.84661E+02</wgt>
<wgt id='2336'>0.84621E+02</wgt>
<wgt id='2337'>0.84585E+02</wgt>
<wgt id='2338'>0.84584E+02</wgt>
<wgt id='2339'>0.84686E+02</wgt>
<wgt id='2340'>0.84563E+02</wgt>
<wgt id='2341'>0.84562E+02</wgt>
<wgt id='2342'>0.84524E+02</wgt>
<wgt id='2343'>0.84513E+02</wgt>
<wgt id='2344'>0.84655E+02</wgt>
<wgt id='2345'>0.84650E+02</wgt>
<wgt id='2346'>0.84622E+02</wgt>
<wgt id='2347'>0.84578E+02</wgt>
<wgt id='2348'>0.84613E+02</wgt>
<wgt id='2349'>0.84563E+02</wgt>
<wgt id='2350'>0.84562E+02</wgt>
<wgt id='2351'>0.84677E+02</wgt>
<wgt id='2352'>0.84578E+02</wgt>
<wgt id='2353'>0.84590E+02</wgt>
<wgt id='2354'>0.84588E+02</wgt>
<wgt id='2355'>0.84606E+02</wgt>
<wgt id='2356'>0.84620E+02</wgt>
<wgt id='2357'>0.84603E+02</wgt>
<wgt id='2358'>0.84562E+02</wgt>
<wgt id='2359'>0.84616E+02</wgt>
<wgt id='2360'>0.84615E+02</wgt>
<wgt id='2361'>0.84653E+02</wgt>
<wgt id='2362'>0.84616E+02</wgt>
<wgt id='2363'>0.84597E+02</wgt>
<wgt id='2364'>0.84588E+02</wgt>
<wgt id='2365'>0.84588E+02</wgt>
<wgt id='2366'>0.84616E+02</wgt>
<wgt id='2367'>0.84551E+02</wgt>
<wgt id='2368'>0.84605E+02</wgt>
<wgt id='2369'>0.84572E+02</wgt>
<wgt id='2370'>0.84565E+02</wgt>
<wgt id='2371'>0.84581E+02</wgt>
<wgt id='2372'>0.84611E+02</wgt>
<wgt id='2373'>0.84585E+02</wgt>
<wgt id='2374'>0.84610E+02</wgt>
<wgt id='2375'>0.84601E+02</wgt>
<wgt id='2376'>0.84598E+02</wgt>
<wgt id='2377'>0.84599E+02</wgt>
<wgt id='2378'>0.84614E+02</wgt>
<wgt id='2379'>0.84595E+02</wgt>
<wgt id='2380'>0.84588E+02</wgt>
<wgt id='2381'>0.84594E+02</wgt>
<wgt id='2382'>0.84587E+02</wgt>
<wgt id='2383'>0.84584E+02</wgt>
<wgt id='2384'>0.84578E+02</wgt>
<wgt id='2385'>0.84591E+02</wgt>
<wgt id='2386'>0.84575E+02</wgt>
<wgt id='2387'>0.84585E+02</wgt>
<wgt id='2388'>0.84595E+02</wgt>
<wgt id='2389'>0.84592E+02</wgt>
<wgt id='2390'>0.84600E+02</wgt>
<wgt id='2391'>0.84606E+02</wgt>
<wgt id='2392'>0.84604E+02</wgt>
<wgt id='2393'>0.84588E+02</wgt>
<wgt id='2394'>0.84609E+02</wgt>
<wgt id='2395'>0.84602E+02</wgt>
<wgt id='2396'>0.84603E+02</wgt>
<wgt id='2397'>0.84586E+02</wgt>
<wgt id='2398'>0.84603E+02</wgt>
<wgt id='2399'>0.84604E+02</wgt>
<wgt id='2400'>0.84599E+02</wgt>
<wgt id='2401'>0.82388E+02</wgt>
<wgt id='2402'>0.86970E+02</wgt>
<wgt id='2500'>0.80767E+02</wgt>
<wgt id='2501'>0.84868E+02</wgt>
<wgt id='2600'>0.78925E+02</wgt>
<wgt id='2601'>0.78907E+02</wgt>
<wgt id='2602'>0.78897E+02</wgt>
<wgt id='2603'>0.78885E+02</wgt>
<wgt id='2604'>0.79097E+02</wgt>
<wgt id='2605'>0.78790E+02</wgt>
<wgt id='2606'>0.78620E+02</wgt>
<wgt id='2607'>0.79173E+02</wgt>
<wgt id='2608'>0.78760E+02</wgt>
<wgt id='2609'>0.78899E+02</wgt>
<wgt id='2610'>0.78885E+02</wgt>
<wgt id='2611'>0.78855E+02</wgt>
<wgt id='2612'>0.79318E+02</wgt>
<wgt id='2613'>0.78913E+02</wgt>
<wgt id='2614'>0.78941E+02</wgt>
<wgt id='2615'>0.78879E+02</wgt>
<wgt id='2616'>0.78910E+02</wgt>
<wgt id='2617'>0.78875E+02</wgt>
<wgt id='2618'>0.78798E+02</wgt>
<wgt id='2619'>0.78948E+02</wgt>
<wgt id='2620'>0.78978E+02</wgt>
<wgt id='2621'>0.78903E+02</wgt>
<wgt id='2622'>0.78883E+02</wgt>
<wgt id='2623'>0.78921E+02</wgt>
<wgt id='2624'>0.78928E+02</wgt>
<wgt id='2625'>0.78925E+02</wgt>
<wgt id='2626'>0.78932E+02</wgt>
<wgt id='2627'>0.78915E+02</wgt>
<wgt id='2628'>0.78927E+02</wgt>
<wgt id='2629'>0.78930E+02</wgt>
<wgt id='2630'>0.78916E+02</wgt>
<wgt id='2631'>0.78940E+02</wgt>
<wgt id='2632'>0.78908E+02</wgt>
<wgt id='2633'>0.78932E+02</wgt>
<wgt id='2634'>0.78937E+02</wgt>
<wgt id='2635'>0.78909E+02</wgt>
<wgt id='2636'>0.78931E+02</wgt>
<wgt id='2637'>0.78922E+02</wgt>
<wgt id='2638'>0.78908E+02</wgt>
<wgt id='2639'>0.78930E+02</wgt>
<wgt id='2640'>0.78928E+02</wgt>
<wgt id='2641'>0.78915E+02</wgt>
<wgt id='2642'>0.78920E+02</wgt>
<wgt id='2643'>0.78917E+02</wgt>
<wgt id='2644'>0.78928E+02</wgt>
<wgt id='2645'>0.78920E+02</wgt>
<wgt id='2646'>0.78933E+02</wgt>
<wgt id='2647'>0.78922E+02</wgt>
<wgt id='2648'>0.78922E+02</wgt>
<wgt id='2649'>0.78926E+02</wgt>
<wgt id='2650'>0.78924E+02</wgt>
<wgt id='2651'>0.77518E+02</wgt>
<wgt id='2652'>0.80249E+02</wgt>
<wgt id='2700'>0.76146E+02</wgt>
<wgt id='2701'>0.77518E+02</wgt>
<wgt id='2702'>0.78258E+02</wgt>
<wgt id='2703'>0.79511E+02</wgt>
<wgt id='2704'>0.80249E+02</wgt>
<wgt id='2705'>0.81521E+02</wgt>
<wgt id='2800'>0.80297E+02</wgt>
<wgt id='4000'>0.79024E+02</wgt>
<wgt id='4001'>0.79363E+02</wgt>
<wgt id='4002'>0.78812E+02</wgt>
<wgt id='4003'>0.79864E+02</wgt>
<wgt id='4004'>0.77940E+02</wgt>
<wgt id='4005'>0.78453E+02</wgt>
<wgt id='4006'>0.79415E+02</wgt>
<wgt id='4007'>0.80065E+02</wgt>
<wgt id='4008'>0.77954E+02</wgt>
<wgt id='4009'>0.79648E+02</wgt>
<wgt id='4010'>0.78595E+02</wgt>
<wgt id='4011'>0.79233E+02</wgt>
<wgt id='4012'>0.78797E+02</wgt>
<wgt id='4013'>0.79535E+02</wgt>
<wgt id='4014'>0.78521E+02</wgt>
<wgt id='4015'>0.78891E+02</wgt>
<wgt id='4016'>0.78655E+02</wgt>
<wgt id='4017'>0.78902E+02</wgt>
<wgt id='4018'>0.79181E+02</wgt>
<wgt id='4019'>0.79611E+02</wgt>
<wgt id='4020'>0.78040E+02</wgt>
<wgt id='4021'>0.78998E+02</wgt>
<wgt id='4022'>0.79028E+02</wgt>
<wgt id='4023'>0.78332E+02</wgt>
<wgt id='4024'>0.79508E+02</wgt>
<wgt id='4025'>0.79316E+02</wgt>
<wgt id='4026'>0.78213E+02</wgt>
<wgt id='4027'>0.78657E+02</wgt>
<wgt id='4028'>0.79296E+02</wgt>
<wgt id='4029'>0.77640E+02</wgt>
<wgt id='4030'>0.79743E+02</wgt>
<wgt id='4031'>0.79163E+02</wgt>
<wgt id='4032'>0.77893E+02</wgt>
<wgt id='4033'>0.78494E+02</wgt>
<wgt id='4034'>0.79419E+02</wgt>
<wgt id='4035'>0.79685E+02</wgt>
<wgt id='4036'>0.78434E+02</wgt>
<wgt id='4037'>0.79704E+02</wgt>
<wgt id='4038'>0.78296E+02</wgt>
<wgt id='4039'>0.79957E+02</wgt>
<wgt id='4040'>0.77958E+02</wgt>
<wgt id='4041'>0.78746E+02</wgt>
<wgt id='4042'>0.79221E+02</wgt>
<wgt id='4043'>0.77877E+02</wgt>
<wgt id='4044'>0.79779E+02</wgt>
<wgt id='4045'>0.81148E+02</wgt>
<wgt id='4046'>0.77995E+02</wgt>
<wgt id='4047'>0.77650E+02</wgt>
<wgt id='4048'>0.79454E+02</wgt>
<wgt id='4049'>0.78690E+02</wgt>
<wgt id='4050'>0.79209E+02</wgt>
<wgt id='4051'>0.80354E+02</wgt>
<wgt id='4052'>0.77665E+02</wgt>
<wgt id='4053'>0.80104E+02</wgt>
<wgt id='4054'>0.77813E+02</wgt>
<wgt id='4055'>0.79328E+02</wgt>
<wgt id='4056'>0.78537E+02</wgt>
<wgt id='4057'>0.78268E+02</wgt>
<wgt id='4058'>0.79552E+02</wgt>
<wgt id='4100'>0.80110E+02</wgt>
<wgt id='4101'>0.79600E+02</wgt>
<wgt id='4102'>0.78401E+02</wgt>
<wgt id='4103'>0.77747E+02</wgt>
<wgt id='4200'>0.75848E+02</wgt>
<wgt id='4201'>0.76000E+02</wgt>
<wgt id='4202'>0.75851E+02</wgt>
<wgt id='4203'>0.75309E+02</wgt>
<wgt id='4204'>0.76325E+02</wgt>
<wgt id='4205'>0.75857E+02</wgt>
<wgt id='4206'>0.75841E+02</wgt>
<wgt id='4207'>0.75460E+02</wgt>
<wgt id='4208'>0.76126E+02</wgt>
<wgt id='4209'>0.75974E+02</wgt>
<wgt id='4210'>0.75836E+02</wgt>
<wgt id='4211'>0.76790E+02</wgt>
<wgt id='4212'>0.75083E+02</wgt>
<wgt id='4213'>0.75915E+02</wgt>
<wgt id='4214'>0.75729E+02</wgt>
<wgt id='4215'>0.76062E+02</wgt>
<wgt id='4216'>0.75217E+02</wgt>
<wgt id='4217'>0.75447E+02</wgt>
<wgt id='4218'>0.76156E+02</wgt>
<wgt id='4219'>0.74819E+02</wgt>
<wgt id='4220'>0.76707E+02</wgt>
<wgt id='4221'>0.75289E+02</wgt>
<wgt id='4222'>0.76374E+02</wgt>
<wgt id='4223'>0.76783E+02</wgt>
<wgt id='4224'>0.75110E+02</wgt>
<wgt id='4225'>0.74236E+02</wgt>
<wgt id='4226'>0.77163E+02</wgt>
<wgt id='4227'>0.76113E+02</wgt>
<wgt id='4228'>0.75606E+02</wgt>
<wgt id='4229'>0.75749E+02</wgt>
<wgt id='4230'>0.75838E+02</wgt>
<wgt id='4231'>0.75670E+02</wgt>
<wgt id='4232'>0.76046E+02</wgt>
<wgt id='4233'>0.76118E+02</wgt>
<wgt id='4234'>0.75571E+02</wgt>
<wgt id='4235'>0.76096E+02</wgt>
<wgt id='4236'>0.75620E+02</wgt>
<wgt id='4237'>0.75640E+02</wgt>
<wgt id='4238'>0.76027E+02</wgt>
<wgt id='4239'>0.77088E+02</wgt>
<wgt id='4240'>0.74084E+02</wgt>
<wgt id='4241'>0.75246E+02</wgt>
<wgt id='4242'>0.76507E+02</wgt>
<wgt id='4243'>0.75840E+02</wgt>
<wgt id='4244'>0.75897E+02</wgt>
<wgt id='4245'>0.74795E+02</wgt>
<wgt id='4246'>0.76968E+02</wgt>
<wgt id='4247'>0.75610E+02</wgt>
<wgt id='4248'>0.76000E+02</wgt>
<wgt id='4249'>0.76803E+02</wgt>
<wgt id='4250'>0.74671E+02</wgt>
<wgt id='4251'>0.74407E+02</wgt>
<wgt id='4252'>0.76672E+02</wgt>
<wgt id='4253'>0.75274E+02</wgt>
<wgt id='4254'>0.76323E+02</wgt>
<wgt id='4255'>0.75639E+02</wgt>
<wgt id='4256'>0.75798E+02</wgt>
<wgt id='4257'>0.74420E+02</wgt>
<wgt id='4258'>0.76265E+02</wgt>
<wgt id='4300'>0.78216E+02</wgt>
<wgt id='4301'>0.77117E+02</wgt>
<wgt id='5000'>0.78628E+02</wgt>
<wgt id='5001'>0.78651E+02</wgt>
<wgt id='5002'>0.78598E+02</wgt>
<wgt id='5003'>0.78648E+02</wgt>
<wgt id='5004'>0.78610E+02</wgt>
<wgt id='5005'>0.78614E+02</wgt>
<wgt id='5006'>0.78650E+02</wgt>
<wgt id='5007'>0.78668E+02</wgt>
<wgt id='5008'>0.78595E+02</wgt>
<wgt id='5009'>0.78724E+02</wgt>
<wgt id='5010'>0.78529E+02</wgt>
<wgt id='5011'>0.78767E+02</wgt>
<wgt id='5012'>0.78493E+02</wgt>
<wgt id='5013'>0.78727E+02</wgt>
<wgt id='5014'>0.78558E+02</wgt>
<wgt id='5015'>0.78252E+02</wgt>
<wgt id='5016'>0.78252E+02</wgt>
<wgt id='5017'>0.79098E+02</wgt>
<wgt id='5018'>0.78311E+02</wgt>
<wgt id='5019'>0.78958E+02</wgt>
<wgt id='5020'>0.78177E+02</wgt>
<wgt id='5021'>0.78731E+02</wgt>
<wgt id='5022'>0.78467E+02</wgt>
<wgt id='5023'>0.78513E+02</wgt>
<wgt id='5024'>0.78904E+02</wgt>
<wgt id='5025'>0.78264E+02</wgt>
<wgt id='5026'>0.79039E+02</wgt>
<wgt id='5027'>0.78650E+02</wgt>
<wgt id='5028'>0.78568E+02</wgt>
<wgt id='5029'>0.79061E+02</wgt>
<wgt id='5030'>0.78380E+02</wgt>
<wgt id='5031'>0.78451E+02</wgt>
<wgt id='5032'>0.79152E+02</wgt>
<wgt id='5033'>0.78659E+02</wgt>
<wgt id='5034'>0.78595E+02</wgt>
<wgt id='5035'>0.78625E+02</wgt>
<wgt id='5036'>0.78634E+02</wgt>
<wgt id='5037'>0.78599E+02</wgt>
<wgt id='5038'>0.78646E+02</wgt>
<wgt id='5039'>0.78844E+02</wgt>
<wgt id='5040'>0.78100E+02</wgt>
<wgt id='5041'>0.79090E+02</wgt>
<wgt id='5042'>0.78170E+02</wgt>
<wgt id='5043'>0.78670E+02</wgt>
<wgt id='5044'>0.78642E+02</wgt>
<wgt id='5045'>0.78475E+02</wgt>
<wgt id='5046'>0.78715E+02</wgt>
<wgt id='5047'>0.78647E+02</wgt>
<wgt id='5048'>0.78546E+02</wgt>
<wgt id='5049'>0.78606E+02</wgt>
<wgt id='5050'>0.78658E+02</wgt>
<wgt id='5051'>0.78729E+02</wgt>
<wgt id='5052'>0.78513E+02</wgt>
<wgt id='5053'>0.78391E+02</wgt>
<wgt id='5054'>0.78727E+02</wgt>
<wgt id='5055'>0.78707E+02</wgt>
<wgt id='5056'>0.78632E+02</wgt>
<wgt id='5057'>0.78420E+02</wgt>
<wgt id='5058'>0.78772E+02</wgt>
<wgt id='5059'>0.78632E+02</wgt>
<wgt id='5060'>0.78637E+02</wgt>
<wgt id='5061'>0.78789E+02</wgt>
<wgt id='5062'>0.78605E+02</wgt>
<wgt id='5063'>0.78851E+02</wgt>
<wgt id='5064'>0.78567E+02</wgt>
<wgt id='5100'>0.78628E+02</wgt>
<wgt id='5101'>0.78675E+02</wgt>
<wgt id='6000'>0.79009E+02</wgt>
<wgt id='6001'>0.79218E+02</wgt>
<wgt id='6002'>0.79268E+02</wgt>
<wgt id='6003'>0.79033E+02</wgt>
<wgt id='6004'>0.78865E+02</wgt>
<wgt id='6005'>0.78974E+02</wgt>
<wgt id='6006'>0.79273E+02</wgt>
<wgt id='6007'>0.78970E+02</wgt>
<wgt id='6008'>0.77765E+02</wgt>
<wgt id='6009'>0.79306E+02</wgt>
<wgt id='6010'>0.78034E+02</wgt>
<wgt id='6011'>0.78984E+02</wgt>
<wgt id='6012'>0.79234E+02</wgt>
<wgt id='6013'>0.78827E+02</wgt>
<wgt id='6014'>0.78980E+02</wgt>
<wgt id='6015'>0.78517E+02</wgt>
<wgt id='6016'>0.79008E+02</wgt>
<wgt id='6017'>0.79084E+02</wgt>
<wgt id='6018'>0.78967E+02</wgt>
<wgt id='6019'>0.79052E+02</wgt>
<wgt id='6020'>0.79173E+02</wgt>
<wgt id='6021'>0.79099E+02</wgt>
<wgt id='6022'>0.78910E+02</wgt>
<wgt id='6023'>0.79059E+02</wgt>
<wgt id='6024'>0.79070E+02</wgt>
<wgt id='6025'>0.79196E+02</wgt>
<wgt id='6026'>0.79080E+02</wgt>
<wgt id='6027'>0.79055E+02</wgt>
<wgt id='6028'>0.78919E+02</wgt>
<wgt id='6029'>0.78915E+02</wgt>
<wgt id='6030'>0.79802E+02</wgt>
<wgt id='6031'>0.78879E+02</wgt>
<wgt id='6032'>0.79012E+02</wgt>
<wgt id='6033'>0.78883E+02</wgt>
<wgt id='6034'>0.79189E+02</wgt>
<wgt id='6035'>0.79041E+02</wgt>
<wgt id='6036'>0.79332E+02</wgt>
<wgt id='6037'>0.79036E+02</wgt>
<wgt id='6038'>0.79070E+02</wgt>
<wgt id='6039'>0.79112E+02</wgt>
<wgt id='6040'>0.79019E+02</wgt>
<wgt id='6041'>0.78105E+02</wgt>
<wgt id='6042'>0.79886E+02</wgt>
<wgt id='7000'>0.78578E+02</wgt>
<wgt id='7001'>0.78261E+02</wgt>
<wgt id='7002'>0.78419E+02</wgt>
<wgt id='7003'>0.78341E+02</wgt>
<wgt id='7004'>0.78339E+02</wgt>
<wgt id='7005'>0.78477E+02</wgt>
<wgt id='7006'>0.78204E+02</wgt>
<wgt id='7007'>0.78813E+02</wgt>
<wgt id='7008'>0.77881E+02</wgt>
<wgt id='7009'>0.78122E+02</wgt>
<wgt id='7010'>0.78568E+02</wgt>
<wgt id='7011'>0.78595E+02</wgt>
<wgt id='7012'>0.78087E+02</wgt>
<wgt id='7013'>0.78169E+02</wgt>
<wgt id='7014'>0.78505E+02</wgt>
<wgt id='7015'>0.78178E+02</wgt>
<wgt id='7016'>0.78292E+02</wgt>
<wgt id='7017'>0.78367E+02</wgt>
<wgt id='7018'>0.78312E+02</wgt>
<wgt id='7019'>0.78133E+02</wgt>
<wgt id='7020'>0.78552E+02</wgt>
<wgt id='7021'>0.78060E+02</wgt>
<wgt id='7022'>0.78576E+02</wgt>
<wgt id='7023'>0.78259E+02</wgt>
<wgt id='7024'>0.78431E+02</wgt>
<wgt id='7025'>0.77757E+02</wgt>
<wgt id='7026'>0.78816E+02</wgt>
<wgt id='7027'>0.78159E+02</wgt>
<wgt id='7028'>0.78580E+02</wgt>
<wgt id='8000'>0.79654E+02</wgt>
<wgt id='8001'>0.79641E+02</wgt>
<wgt id='8002'>0.79678E+02</wgt>
<wgt id='8003'>0.79658E+02</wgt>
<wgt id='8004'>0.79652E+02</wgt>
<wgt id='8005'>0.79495E+02</wgt>
<wgt id='8006'>0.79693E+02</wgt>
<wgt id='8007'>0.79735E+02</wgt>
<wgt id='8008'>0.79826E+02</wgt>
<wgt id='8009'>0.79981E+02</wgt>
<wgt id='8010'>0.79590E+02</wgt>
<wgt id='8011'>0.79648E+02</wgt>
<wgt id='8012'>0.79410E+02</wgt>
<wgt id='8013'>0.79539E+02</wgt>
<wgt id='8014'>0.79769E+02</wgt>
<wgt id='8015'>0.79607E+02</wgt>
<wgt id='8016'>0.79704E+02</wgt>
<wgt id='8017'>0.79673E+02</wgt>
<wgt id='8018'>0.79770E+02</wgt>
<wgt id='8019'>0.79784E+02</wgt>
<wgt id='8020'>0.79465E+02</wgt>
<wgt id='8021'>0.79628E+02</wgt>
<wgt id='8022'>0.79299E+02</wgt>
<wgt id='8023'>0.79675E+02</wgt>
<wgt id='8024'>0.79621E+02</wgt>
<wgt id='8025'>0.79807E+02</wgt>
<wgt id='8026'>0.79806E+02</wgt>
<wgt id='8027'>0.79615E+02</wgt>
<wgt id='8028'>0.79726E+02</wgt>
<wgt id='8029'>0.79167E+02</wgt>
<wgt id='3000'>0.81104E+02</wgt>
<wgt id='3001'>0.79872E+02</wgt>
<wgt id='3002'>0.80824E+02</wgt>
<wgt id='3003'>0.83346E+02</wgt>
<wgt id='3004'>0.81925E+02</wgt>
<wgt id='3005'>0.80815E+02</wgt>
<wgt id='3006'>0.81478E+02</wgt>
<wgt id='3007'>0.80228E+02</wgt>
<wgt id='3008'>0.79995E+02</wgt>
<wgt id='3009'>0.83101E+02</wgt>
<wgt id='3010'>0.82924E+02</wgt>
<wgt id='3011'>0.82369E+02</wgt>
<wgt id='3012'>0.80667E+02</wgt>
<wgt id='3013'>0.80194E+02</wgt>
<wgt id='3014'>0.79698E+02</wgt>
<wgt id='3015'>0.83651E+02</wgt>
<wgt id='3016'>0.83131E+02</wgt>
<wgt id='3017'>0.82852E+02</wgt>
<wgt id='3018'>0.80783E+02</wgt>
<wgt id='3019'>0.80081E+02</wgt>
<wgt id='3020'>0.81207E+02</wgt>
<wgt id='3021'>0.79432E+02</wgt>
<wgt id='3022'>0.79880E+02</wgt>
<wgt id='3023'>0.79891E+02</wgt>
<wgt id='3024'>0.79131E+02</wgt>
<wgt id='3025'>0.79670E+02</wgt>
<wgt id='3026'>0.80932E+02</wgt>
<wgt id='3027'>0.80668E+02</wgt>
<wgt id='3028'>0.79205E+02</wgt>
<wgt id='3029'>0.82631E+02</wgt>
<wgt id='3030'>0.83398E+02</wgt>
<wgt id='3031'>0.81914E+02</wgt>
<wgt id='3032'>0.81954E+02</wgt>
<wgt id='3033'>0.80307E+02</wgt>
<wgt id='3034'>0.79997E+02</wgt>
<wgt id='3035'>0.82680E+02</wgt>
<wgt id='3036'>0.79712E+02</wgt>
<wgt id='3037'>0.81475E+02</wgt>
<wgt id='3038'>0.80890E+02</wgt>
<wgt id='3039'>0.82064E+02</wgt>
<wgt id='3040'>0.80777E+02</wgt>
<wgt id='3041'>0.81726E+02</wgt>
<wgt id='3042'>0.79560E+02</wgt>
<wgt id='3043'>0.81031E+02</wgt>
<wgt id='3044'>0.80130E+02</wgt>
<wgt id='3045'>0.81378E+02</wgt>
<wgt id='3046'>0.81675E+02</wgt>
<wgt id='3047'>0.78501E+02</wgt>
<wgt id='3048'>0.78509E+02</wgt>
<wgt id='3049'>0.82628E+02</wgt>
<wgt id='3050'>0.81957E+02</wgt>
<wgt id='3051'>0.81204E+02</wgt>
<wgt id='3052'>0.79653E+02</wgt>
<wgt id='3053'>0.81195E+02</wgt>
<wgt id='3054'>0.81625E+02</wgt>
<wgt id='3055'>0.78863E+02</wgt>
<wgt id='3056'>0.80448E+02</wgt>
<wgt id='3057'>0.80553E+02</wgt>
<wgt id='3058'>0.79217E+02</wgt>
<wgt id='3059'>0.83805E+02</wgt>
<wgt id='3060'>0.81240E+02</wgt>
<wgt id='3061'>0.81196E+02</wgt>
<wgt id='3062'>0.80703E+02</wgt>
<wgt id='3063'>0.78768E+02</wgt>
<wgt id='3064'>0.80365E+02</wgt>
<wgt id='3065'>0.80392E+02</wgt>
<wgt id='3066'>0.81320E+02</wgt>
<wgt id='3067'>0.79080E+02</wgt>
<wgt id='3068'>0.82570E+02</wgt>
<wgt id='3069'>0.80153E+02</wgt>
<wgt id='3070'>0.79035E+02</wgt>
<wgt id='3071'>0.83534E+02</wgt>
<wgt id='3072'>0.82996E+02</wgt>
<wgt id='3073'>0.82411E+02</wgt>
<wgt id='3074'>0.83634E+02</wgt>
<wgt id='3075'>0.82582E+02</wgt>
<wgt id='3076'>0.83379E+02</wgt>
<wgt id='3077'>0.79824E+02</wgt>
<wgt id='3078'>0.82643E+02</wgt>
<wgt id='3079'>0.81221E+02</wgt>
<wgt id='3080'>0.80106E+02</wgt>
<wgt id='3081'>0.78714E+02</wgt>
<wgt id='3082'>0.83131E+02</wgt>
<wgt id='3083'>0.80918E+02</wgt>
<wgt id='3084'>0.81377E+02</wgt>
<wgt id='3085'>0.84365E+02</wgt>
<wgt id='3086'>0.78291E+02</wgt>
<wgt id='3087'>0.82480E+02</wgt>
<wgt id='3088'>0.81944E+02</wgt>
<wgt id='3089'>0.84076E+02</wgt>
<wgt id='3090'>0.79955E+02</wgt>
<wgt id='3091'>0.80056E+02</wgt>
<wgt id='3092'>0.82796E+02</wgt>
<wgt id='3093'>0.82256E+02</wgt>
<wgt id='3094'>0.80803E+02</wgt>
<wgt id='3095'>0.80118E+02</wgt>
<wgt id='3096'>0.80632E+02</wgt>
<wgt id='3097'>0.79353E+02</wgt>
<wgt id='3098'>0.81844E+02</wgt>
<wgt id='3099'>0.80524E+02</wgt>
<wgt id='3100'>0.80824E+02</wgt>
<wgt id='3200'>0.78907E+02</wgt>
<wgt id='3201'>0.79153E+02</wgt>
<wgt id='3202'>0.78198E+02</wgt>
<wgt id='3203'>0.78392E+02</wgt>
<wgt id='3204'>0.78588E+02</wgt>
<wgt id='3205'>0.79575E+02</wgt>
<wgt id='3206'>0.79048E+02</wgt>
<wgt id='3207'>0.79346E+02</wgt>
<wgt id='3208'>0.79206E+02</wgt>
<wgt id='3209'>0.78854E+02</wgt>
<wgt id='3210'>0.78897E+02</wgt>
<wgt id='3211'>0.80217E+02</wgt>
<wgt id='3212'>0.77894E+02</wgt>
<wgt id='3213'>0.78273E+02</wgt>
<wgt id='3214'>0.77771E+02</wgt>
<wgt id='3215'>0.78849E+02</wgt>
<wgt id='3216'>0.78952E+02</wgt>
<wgt id='3217'>0.79046E+02</wgt>
<wgt id='3218'>0.78850E+02</wgt>
<wgt id='3219'>0.79197E+02</wgt>
<wgt id='3220'>0.77999E+02</wgt>
<wgt id='3221'>0.79627E+02</wgt>
<wgt id='3222'>0.79398E+02</wgt>
<wgt id='3223'>0.78966E+02</wgt>
<wgt id='3224'>0.78429E+02</wgt>
<wgt id='3225'>0.79124E+02</wgt>
<wgt id='3226'>0.78921E+02</wgt>
<wgt id='3227'>0.78158E+02</wgt>
<wgt id='3228'>0.78188E+02</wgt>
<wgt id='3229'>0.79264E+02</wgt>
<wgt id='3230'>0.79441E+02</wgt>
<wgt id='3231'>0.79230E+02</wgt>
<wgt id='3232'>0.79428E+02</wgt>
<wgt id='3233'>0.79030E+02</wgt>
<wgt id='3234'>0.79462E+02</wgt>
<wgt id='3235'>0.78350E+02</wgt>
<wgt id='3236'>0.78472E+02</wgt>
<wgt id='3237'>0.78432E+02</wgt>
<wgt id='3238'>0.78990E+02</wgt>
<wgt id='3239'>0.78381E+02</wgt>
<wgt id='3240'>0.79485E+02</wgt>
<wgt id='3241'>0.79596E+02</wgt>
<wgt id='3242'>0.78155E+02</wgt>
<wgt id='3243'>0.78059E+02</wgt>
<wgt id='3244'>0.78650E+02</wgt>
<wgt id='3245'>0.79645E+02</wgt>
<wgt id='3246'>0.78698E+02</wgt>
<wgt id='3247'>0.78521E+02</wgt>
<wgt id='3248'>0.78584E+02</wgt>
<wgt id='3249'>0.78993E+02</wgt>
<wgt id='3250'>0.79367E+02</wgt>
<wgt id='3251'>0.79160E+02</wgt>
<wgt id='3252'>0.78880E+02</wgt>
<wgt id='3253'>0.79117E+02</wgt>
<wgt id='3254'>0.79101E+02</wgt>
<wgt id='3255'>0.78985E+02</wgt>
<wgt id='3256'>0.77763E+02</wgt>
<wgt id='3257'>0.78743E+02</wgt>
<wgt id='3258'>0.79525E+02</wgt>
<wgt id='3259'>0.79136E+02</wgt>
<wgt id='3260'>0.78645E+02</wgt>
<wgt id='3261'>0.79216E+02</wgt>
<wgt id='3262'>0.78360E+02</wgt>
<wgt id='3263'>0.78427E+02</wgt>
<wgt id='3264'>0.79461E+02</wgt>
<wgt id='3265'>0.79810E+02</wgt>
<wgt id='3266'>0.78432E+02</wgt>
<wgt id='3267'>0.78979E+02</wgt>
<wgt id='3268'>0.80118E+02</wgt>
<wgt id='3269'>0.79027E+02</wgt>
<wgt id='3270'>0.79051E+02</wgt>
<wgt id='3271'>0.79036E+02</wgt>
<wgt id='3272'>0.79506E+02</wgt>
<wgt id='3273'>0.79199E+02</wgt>
<wgt id='3274'>0.79562E+02</wgt>
<wgt id='3275'>0.78900E+02</wgt>
<wgt id='3276'>0.79142E+02</wgt>
<wgt id='3277'>0.78154E+02</wgt>
<wgt id='3278'>0.78919E+02</wgt>
<wgt id='3279'>0.79383E+02</wgt>
<wgt id='3280'>0.78720E+02</wgt>
<wgt id='3281'>0.79096E+02</wgt>
<wgt id='3282'>0.79486E+02</wgt>
<wgt id='3283'>0.78944E+02</wgt>
<wgt id='3284'>0.78840E+02</wgt>
<wgt id='3285'>0.78221E+02</wgt>
<wgt id='3286'>0.79197E+02</wgt>
<wgt id='3287'>0.78319E+02</wgt>
<wgt id='3288'>0.79585E+02</wgt>
<wgt id='3289'>0.80449E+02</wgt>
<wgt id='3290'>0.80112E+02</wgt>
<wgt id='3291'>0.77720E+02</wgt>
<wgt id='3292'>0.77172E+02</wgt>
<wgt id='3293'>0.78276E+02</wgt>
<wgt id='3294'>0.77747E+02</wgt>
<wgt id='3295'>0.78005E+02</wgt>
<wgt id='3296'>0.80151E+02</wgt>
<wgt id='3297'>0.78779E+02</wgt>
<wgt id='3298'>0.79292E+02</wgt>
<wgt id='3299'>0.78253E+02</wgt>
<wgt id='3300'>0.79333E+02</wgt>
<wgt id='3301'>0.77518E+02</wgt>
<wgt id='3302'>0.80249E+02</wgt>
<wgt id='3400'>0.78925E+02</wgt>
<wgt id='3401'>0.78951E+02</wgt>
<wgt id='3402'>0.79067E+02</wgt>
<wgt id='3403'>0.79931E+02</wgt>
<wgt id='3404'>0.80238E+02</wgt>
<wgt id='3405'>0.79512E+02</wgt>
<wgt id='3406'>0.79009E+02</wgt>
<wgt id='3407'>0.78543E+02</wgt>
<wgt id='3408'>0.80727E+02</wgt>
<wgt id='3409'>0.79883E+02</wgt>
<wgt id='3410'>0.78464E+02</wgt>
<wgt id='3411'>0.79529E+02</wgt>
<wgt id='3412'>0.79878E+02</wgt>
<wgt id='3413'>0.78781E+02</wgt>
<wgt id='3414'>0.78609E+02</wgt>
<wgt id='3415'>0.79011E+02</wgt>
<wgt id='3416'>0.78384E+02</wgt>
<wgt id='3417'>0.79396E+02</wgt>
<wgt id='3418'>0.78487E+02</wgt>
<wgt id='3419'>0.78714E+02</wgt>
<wgt id='3420'>0.79599E+02</wgt>
<wgt id='3421'>0.79260E+02</wgt>
<wgt id='3422'>0.80019E+02</wgt>
<wgt id='3423'>0.79394E+02</wgt>
<wgt id='3424'>0.79171E+02</wgt>
<wgt id='3425'>0.78399E+02</wgt>
<wgt id='3426'>0.79809E+02</wgt>
<wgt id='3427'>0.78957E+02</wgt>
<wgt id='3428'>0.80089E+02</wgt>
<wgt id='3429'>0.78377E+02</wgt>
<wgt id='3430'>0.79634E+02</wgt>
<wgt id='3431'>0.79215E+02</wgt>
<wgt id='3432'>0.79122E+02</wgt>
<wgt id='3433'>0.77318E+02</wgt>
<wgt id='3434'>0.78573E+02</wgt>
<wgt id='3435'>0.78668E+02</wgt>
<wgt id='3436'>0.79236E+02</wgt>
<wgt id='3437'>0.79086E+02</wgt>
<wgt id='3438'>0.78203E+02</wgt>
<wgt id='3439'>0.79614E+02</wgt>
<wgt id='3440'>0.78935E+02</wgt>
<wgt id='3441'>0.78866E+02</wgt>
<wgt id='3442'>0.77161E+02</wgt>
<wgt id='3443'>0.78593E+02</wgt>
<wgt id='3444'>0.78528E+02</wgt>
<wgt id='3445'>0.78434E+02</wgt>
<wgt id='3446'>0.79273E+02</wgt>
<wgt id='3447'>0.80888E+02</wgt>
<wgt id='3448'>0.79419E+02</wgt>
<wgt id='3449'>0.79280E+02</wgt>
<wgt id='3450'>0.78709E+02</wgt>
<wgt id='3451'>0.80385E+02</wgt>
<wgt id='3452'>0.78552E+02</wgt>
<wgt id='3453'>0.78643E+02</wgt>
<wgt id='3454'>0.77783E+02</wgt>
<wgt id='3455'>0.80145E+02</wgt>
<wgt id='3456'>0.79325E+02</wgt>
<wgt id='3457'>0.79402E+02</wgt>
<wgt id='3458'>0.78969E+02</wgt>
<wgt id='3459'>0.78505E+02</wgt>
<wgt id='3460'>0.78479E+02</wgt>
<wgt id='3461'>0.78325E+02</wgt>
<wgt id='3462'>0.78119E+02</wgt>
<wgt id='3463'>0.77940E+02</wgt>
<wgt id='3464'>0.79489E+02</wgt>
<wgt id='3465'>0.78371E+02</wgt>
<wgt id='3466'>0.79048E+02</wgt>
<wgt id='3467'>0.78741E+02</wgt>
<wgt id='3468'>0.77376E+02</wgt>
<wgt id='3469'>0.79049E+02</wgt>
<wgt id='3470'>0.79214E+02</wgt>
<wgt id='3471'>0.79046E+02</wgt>
<wgt id='3472'>0.78429E+02</wgt>
<wgt id='3473'>0.79071E+02</wgt>
<wgt id='3474'>0.78691E+02</wgt>
<wgt id='3475'>0.78557E+02</wgt>
<wgt id='3476'>0.79501E+02</wgt>
<wgt id='3477'>0.77760E+02</wgt>
<wgt id='3478'>0.78838E+02</wgt>
<wgt id='3479'>0.80373E+02</wgt>
<wgt id='3480'>0.78281E+02</wgt>
<wgt id='3481'>0.79353E+02</wgt>
<wgt id='3482'>0.77961E+02</wgt>
<wgt id='3483'>0.77250E+02</wgt>
<wgt id='3484'>0.78696E+02</wgt>
<wgt id='3485'>0.78776E+02</wgt>
<wgt id='3486'>0.77599E+02</wgt>
<wgt id='3487'>0.78896E+02</wgt>
<wgt id='3488'>0.80196E+02</wgt>
<wgt id='3489'>0.78049E+02</wgt>
<wgt id='3490'>0.78736E+02</wgt>
<wgt id='3491'>0.79102E+02</wgt>
<wgt id='3492'>0.79494E+02</wgt>
<wgt id='3493'>0.78349E+02</wgt>
<wgt id='3494'>0.77677E+02</wgt>
<wgt id='3495'>0.79017E+02</wgt>
<wgt id='3496'>0.77695E+02</wgt>
<wgt id='3497'>0.78194E+02</wgt>
<wgt id='3498'>0.79372E+02</wgt>
<wgt id='3499'>0.79118E+02</wgt>
<wgt id='3500'>0.79834E+02</wgt>
</rwgt>
</event>
<event>
     13 322200  8.11039E+01  9.21327E+01 -1.00000E+00  1.23821E-01
      21    -1     0     0   502   503  0.000000000E+00  0.000000000E+00  1.314304079E+02  1.314304079E+02  0.000000000E+00  0.00000E+00  9.000E+00
      21    -1     0     0   504   505  0.000000000E+00  0.000000000E+00 -5.523349683E+02  5.523349683E+02  0.000000000E+00  0.00000E+00  9.000E+00
       6     2     1     2   502     0 -3.519054304E+01  6.280874719E+01 -6.887621399E+01  1.977120699E+02  1.707712408E+02  0.00000E+00  9.000E+00
      -6     2     1     2     0   505  1.119967605E+02 -1.192414940E+01 -3.346124051E+02  3.922889616E+02  1.709962224E+02  0.00000E+00  9.000E+00
      21     1     1     2   504   503 -7.680621742E+01 -5.088459780E+01 -1.741594130E+01  9.376434471E+01  7.152557373E-07  0.00000E+00  9.000E+00
      24     2     3     3     0     0 -1.464200864E+01  2.860557818E+01  2.891999473E+01  9.196803427E+01  8.117318345E+01  0.00000E+00  9.000E+00
       5     1     3     3   502     0 -2.054853440E+01  3.420316902E+01 -9.779620872E+01  1.057440357E+02  5.060000000E+00  0.00000E+00 -1.000E+00
     -24     2     4     4     0     0  3.958345510E+01  4.008441029E+01 -1.005684161E+02  1.417879248E+02  8.256027759E+01  0.00000E+00  9.000E+00
      -5     1     4     4     0   505  7.241330536E+01 -5.200855969E+01 -2.340439890E+02  2.505010368E+02  5.060000000E+00  0.00000E+00  1.000E+00
     -13     1     6     6     0     0 -2.010837095E+00 -2.790169392E+01  1.736142099E+01  3.292382269E+01  1.057000000E-01  0.00000E+00  1.000E+00
      14     1     6     6     0     0 -1.263117155E+01  5.650727209E+01  1.155857374E+01  5.904421158E+01  0.000000000E+00  0.00000E+00 -1.000E+00
      11     1     8     8     0     0  2.556195806E+01 -2.028720127E+01 -5.815729727E+01  6.668774596E+01  5.100000000E-04  0.00000E+00 -1.000E+00
     -12     1     8     8     0     0  1.402149704E+01  6.037161156E+01 -4.241111884E+01  7.510017885E+01  0.000000000E+00  0.00000E+00  1.000E+00
#rwgt            1           1   672.85612628762885               10       33240           0
<rwgt>
<wgt id='1001'>0.81104E+02</wgt>
<wgt id='1002'>0.76387E+02</wgt>
<wgt id='1003'>0.85864E+02</wgt>
<wgt id='1004'>0.70070E+02</wgt>
<wgt id='1005'>0.66072E+02</wgt>
<wgt id='1006'>0.74091E+02</wgt>
<wgt id='1007'>0.94894E+02</wgt>
<wgt id='1008'>0.89239E+02</wgt>
<wgt id='1009'>0.10062E+03</wgt>
<wgt id='2000'>0.81104E+02</wgt>
<wgt id='2001'>0.81086E+02</wgt>
<wgt id='2002'>0.80945E+02</wgt>
<wgt id='2003'>0.81234E+02</wgt>
<wgt id='2004'>0.81288E+02</wgt>
<wgt id='2005'>0.81141E+02</wgt>
<wgt id='2006'>0.81273E+02</wgt>
<wgt id='2007'>0.81297E+02</wgt>
<wgt id='2008'>0.81420E+02</wgt>
<wgt id='2009'>0.81007E+02</wgt>
<wgt id='2010'>0.81066E+02</wgt>
<wgt id='2011'>0.80907E+02</wgt>
<wgt id='2012'>0.81191E+02</wgt>
<wgt id='2013'>0.81118E+02</wgt>
<wgt id='2014'>0.81245E+02</wgt>
<wgt id='2015'>0.81225E+02</wgt>
<wgt id='2016'>0.81065E+02</wgt>
<wgt id='2017'>0.81166E+02</wgt>
<wgt id='2018'>0.81116E+02</wgt>
<wgt id='2019'>0.80992E+02</wgt>
<wgt id='2020'>0.81121E+02</wgt>
<wgt id='2021'>0.80966E+02</wgt>
<wgt id='2022'>0.81182E+02</wgt>
<wgt id='2023'>0.81118E+02</wgt>
<wgt id='2024'>0.81013E+02</wgt>
<wgt id='2025'>0.81028E+02</wgt>
<wgt id='2026'>0.81033E+02</wgt>
<wgt id='2027'>0.80848E+02</wgt>
<wgt id='2028'>0.81136E+02</wgt>
<wgt id='2029'>0.80756E+02</wgt>
<wgt id='2030'>0.81090E+02</wgt>
<wgt id='2031'>0.80843E+02</wgt>
<wgt id='2032'>0.81178E+02</wgt>
<wgt id='2033'>0.80993E+02</wgt>
<wgt id='2034'>0.80980E+02</wgt>
<wgt id='2035'>0.81094E+02</wgt>
<wgt id='2036'>0.81284E+02</wgt>
<wgt id='2037'>0.81096E+02</wgt>
<wgt id='2038'>0.81056E+02</wgt>
<wgt id='2039'>0.81115E+02</wgt>
<wgt id='2040'>0.81044E+02</wgt>
<wgt id='2041'>0.81106E+02</wgt>
<wgt id='2042'>0.81156E+02</wgt>
<wgt id='2043'>0.81058E+02</wgt>
<wgt id='2044'>0.81159E+02</wgt>
<wgt id='2045'>0.81102E+02</wgt>
<wgt id='2046'>0.81103E+02</wgt>
<wgt id='2047'>0.81097E+02</wgt>
<wgt id='2048'>0.81068E+02</wgt>
<wgt id='2049'>0.81041E+02</wgt>
<wgt id='2050'>0.81079E+02</wgt>
<wgt id='2051'>0.81097E+02</wgt>
<wgt id='2052'>0.81172E+02</wgt>
<wgt id='2053'>0.81083E+02</wgt>
<wgt id='2054'>0.81089E+02</wgt>
<wgt id='2055'>0.81121E+02</wgt>
<wgt id='2056'>0.81058E+02</wgt>
<wgt id='2057'>0.81132E+02</wgt>
<wgt id='2058'>0.81119E+02</wgt>
<wgt id='2059'>0.81104E+02</wgt>
<wgt id='2060'>0.81106E+02</wgt>
<wgt id='2061'>0.81099E+02</wgt>
<wgt id='2062'>0.81170E+02</wgt>
<wgt id='2063'>0.81123E+02</wgt>
<wgt id='2064'>0.81121E+02</wgt>
<wgt id='2065'>0.81171E+02</wgt>
<wgt id='2066'>0.81097E+02</wgt>
<wgt id='2067'>0.81124E+02</wgt>
<wgt id='2068'>0.81120E+02</wgt>
<wgt id='2069'>0.81110E+02</wgt>
<wgt id='2070'>0.81114E+02</wgt>
<wgt id='2071'>0.81103E+02</wgt>
<wgt id='2072'>0.81105E+02</wgt>
<wgt id='2073'>0.81119E+02</wgt>
<wgt id='2074'>0.81092E+02</wgt>
<wgt id='2075'>0.81082E+02</wgt>
<wgt id='2076'>0.81095E+02</wgt>
<wgt id='2077'>0.81143E+02</wgt>
<wgt id='2078'>0.81117E+02</wgt>
<wgt id='2079'>0.81084E+02</wgt>
<wgt id='2080'>0.81114E+02</wgt>
<wgt id='2081'>0.81099E+02</wgt>
<wgt id='2082'>0.81116E+02</wgt>
<wgt id='2083'>0.81132E+02</wgt>
<wgt id='2084'>0.81112E+02</wgt>
<wgt id='2085'>0.81105E+02</wgt>
<wgt id='2086'>0.81093E+02</wgt>
<wgt id='2087'>0.81115E+02</wgt>
<wgt id='2088'>0.81101E+02</wgt>
<wgt id='2089'>0.81093E+02</wgt>
<wgt id='2090'>0.81117E+02</wgt>
<wgt id='2091'>0.81101E+02</wgt>
<wgt id='2092'>0.81125E+02</wgt>
<wgt id='2093'>0.81095E+02</wgt>
<wgt id='2094'>0.81108E+02</wgt>
<wgt id='2095'>0.81116E+02</wgt>
<wgt id='2096'>0.81093E+02</wgt>
<wgt id='2097'>0.81116E+02</wgt>
<wgt id='2098'>0.81102E+02</wgt>
<wgt id='2099'>0.81114E+02</wgt>
<wgt id='2100'>0.81104E+02</wgt>
<wgt id='2101'>0.78885E+02</wgt>
<wgt id='2102'>0.83361E+02</wgt>
<wgt id='2200'>0.81165E+02</wgt>
<wgt id='2201'>0.70704E+02</wgt>
<wgt id='2202'>0.72689E+02</wgt>
<wgt id='2203'>0.74783E+02</wgt>
<wgt id='2204'>0.76824E+02</wgt>
<wgt id='2205'>0.80167E+02</wgt>
<wgt id='2206'>0.82335E+02</wgt>
<wgt id='2207'>0.85316E+02</wgt>
<wgt id='2208'>0.87477E+02</wgt>
<wgt id='2300'>0.84709E+02</wgt>
<wgt id='2301'>0.84832E+02</wgt>
<wgt id='2302'>0.84586E+02</wgt>
<wgt id='2303'>0.84775E+02</wgt>
<wgt id='2304'>0.84927E+02</wgt>
<wgt id='2305'>0.84847E+02</wgt>
<wgt id='2306'>0.84689E+02</wgt>
<wgt id='2307'>0.84841E+02</wgt>
<wgt id='2308'>0.84627E+02</wgt>
<wgt id='2309'>0.84826E+02</wgt>
<wgt id='2310'>0.84562E+02</wgt>
<wgt id='2311'>0.84654E+02</wgt>
<wgt id='2312'>0.84877E+02</wgt>
<wgt id='2313'>0.84617E+02</wgt>
<wgt id='2314'>0.84801E+02</wgt>
<wgt id='2315'>0.84721E+02</wgt>
<wgt id='2316'>0.84720E+02</wgt>
<wgt id='2317'>0.84776E+02</wgt>
<wgt id='2318'>0.84790E+02</wgt>
<wgt id='2319'>0.84716E+02</wgt>
<wgt id='2320'>0.84747E+02</wgt>
<wgt id='2321'>0.84710E+02</wgt>
<wgt id='2322'>0.84710E+02</wgt>
<wgt id='2323'>0.84687E+02</wgt>
<wgt id='2324'>0.84684E+02</wgt>
<wgt id='2325'>0.84799E+02</wgt>
<wgt id='2326'>0.84678E+02</wgt>
<wgt id='2327'>0.84743E+02</wgt>
<wgt id='2328'>0.84580E+02</wgt>
<wgt id='2329'>0.84500E+02</wgt>
<wgt id='2330'>0.85112E+02</wgt>
<wgt id='2331'>0.84914E+02</wgt>
<wgt id='2332'>0.84742E+02</wgt>
<wgt id='2333'>0.84887E+02</wgt>
<wgt id='2334'>0.84717E+02</wgt>
<wgt id='2335'>0.85050E+02</wgt>
<wgt id='2336'>0.84804E+02</wgt>
<wgt id='2337'>0.84666E+02</wgt>
<wgt id='2338'>0.84729E+02</wgt>
<wgt id='2339'>0.84716E+02</wgt>
<wgt id='2340'>0.84609E+02</wgt>
<wgt id='2341'>0.84770E+02</wgt>
<wgt id='2342'>0.84631E+02</wgt>
<wgt id='2343'>0.84602E+02</wgt>
<wgt id='2344'>0.84742E+02</wgt>
<wgt id='2345'>0.84781E+02</wgt>
<wgt id='2346'>0.84816E+02</wgt>
<wgt id='2347'>0.84721E+02</wgt>
<wgt id='2348'>0.84718E+02</wgt>
<wgt id='2349'>0.84690E+02</wgt>
<wgt id='2350'>0.84643E+02</wgt>
<wgt id='2351'>0.84809E+02</wgt>
<wgt id='2352'>0.84649E+02</wgt>
<wgt id='2353'>0.84692E+02</wgt>
<wgt id='2354'>0.84727E+02</wgt>
<wgt id='2355'>0.84598E+02</wgt>
<wgt id='2356'>0.84724E+02</wgt>
<wgt id='2357'>0.84699E+02</wgt>
<wgt id='2358'>0.84645E+02</wgt>
<wgt id='2359'>0.84721E+02</wgt>
<wgt id='2360'>0.84742E+02</wgt>
<wgt id='2361'>0.84731E+02</wgt>
<wgt id='2362'>0.84740E+02</wgt>
<wgt id='2363'>0.84751E+02</wgt>
<wgt id='2364'>0.84681E+02</wgt>
<wgt id='2365'>0.84703E+02</wgt>
<wgt id='2366'>0.84733E+02</wgt>
<wgt id='2367'>0.84655E+02</wgt>
<wgt id='2368'>0.84734E+02</wgt>
<wgt id='2369'>0.84690E+02</wgt>
<wgt id='2370'>0.84721E+02</wgt>
<wgt id='2371'>0.84695E+02</wgt>
<wgt id='2372'>0.84714E+02</wgt>
<wgt id='2373'>0.84672E+02</wgt>
<wgt id='2374'>0.84747E+02</wgt>
<wgt id='2375'>0.84716E+02</wgt>
<wgt id='2376'>0.84691E+02</wgt>
<wgt id='2377'>0.84713E+02</wgt>
<wgt id='2378'>0.84733E+02</wgt>
<wgt id='2379'>0.84695E+02</wgt>
<wgt id='2380'>0.84713E+02</wgt>
<wgt id='2381'>0.84712E+02</wgt>
<wgt id='2382'>0.84702E+02</wgt>
<wgt id='2383'>0.84702E+02</wgt>
<wgt id='2384'>0.84695E+02</wgt>
<wgt id='2385'>0.84710E+02</wgt>
<wgt id='2386'>0.84686E+02</wgt>
<wgt id='2387'>0.84697E+02</wgt>
<wgt id='2388'>0.84707E+02</wgt>
<wgt id='2389'>0.84709E+02</wgt>
<wgt id='2390'>0.84714E+02</wgt>
<wgt id='2391'>0.84714E+02</wgt>
<wgt id='2392'>0.84710E+02</wgt>
<wgt id='2393'>0.84714E+02</wgt>
<wgt id='2394'>0.84725E+02</wgt>
<wgt id='2395'>0.84712E+02</wgt>
<wgt id='2396'>0.84705E+02</wgt>
<wgt id='2397'>0.84695E+02</wgt>
<wgt id='2398'>0.84706E+02</wgt>
<wgt id='2399'>0.84721E+02</wgt>
<wgt id='2400'>0.84714E+02</wgt>
<wgt id='2401'>0.82373E+02</wgt>
<wgt id='2402'>0.86976E+02</wgt>
<wgt id='2500'>0.81330E+02</wgt>
<wgt id='2501'>0.86022E+02</wgt>
<wgt id='2600'>0.79071E+02</wgt>
<wgt id='2601'>0.78967E+02</wgt>
<wgt id='2602'>0.79126E+02</wgt>
<wgt id='2603'>0.79036E+02</wgt>
<wgt id='2604'>0.79189E+02</wgt>
<wgt id='2605'>0.78981E+02</wgt>
<wgt id='2606'>0.78948E+02</wgt>
<wgt id='2607'>0.79185E+02</wgt>
<wgt id='2608'>0.79054E+02</wgt>
<wgt id='2609'>0.79019E+02</wgt>
<wgt id='2610'>0.79027E+02</wgt>
<wgt id='2611'>0.79019E+02</wgt>
<wgt id='2612'>0.79258E+02</wgt>
<wgt id='2613'>0.79039E+02</wgt>
<wgt id='2614'>0.79033E+02</wgt>
<wgt id='2615'>0.78922E+02</wgt>
<wgt id='2616'>0.79056E+02</wgt>
<wgt id='2617'>0.78928E+02</wgt>
<wgt id='2618'>0.78917E+02</wgt>
<wgt id='2619'>0.79124E+02</wgt>
<wgt id='2620'>0.79055E+02</wgt>
<wgt id='2621'>0.79070E+02</wgt>
<wgt id='2622'>0.79237E+02</wgt>
<wgt id='2623'>0.79071E+02</wgt>
<wgt id='2624'>0.79075E+02</wgt>
<wgt id='2625'>0.79000E+02</wgt>
<wgt id='2626'>0.79053E+02</wgt>
<wgt id='2627'>0.79045E+02</wgt>
<wgt id='2628'>0.79087E+02</wgt>
<wgt id='2629'>0.79072E+02</wgt>
<wgt id='2630'>0.79080E+02</wgt>
<wgt id='2631'>0.79025E+02</wgt>
<wgt id='2632'>0.79092E+02</wgt>
<wgt id='2633'>0.79050E+02</wgt>
<wgt id='2634'>0.79049E+02</wgt>
<wgt id='2635'>0.79071E+02</wgt>
<wgt id='2636'>0.79054E+02</wgt>
<wgt id='2637'>0.79075E+02</wgt>
<wgt id='2638'>0.79099E+02</wgt>
<wgt id='2639'>0.79068E+02</wgt>
<wgt id='2640'>0.79069E+02</wgt>
<wgt id='2641'>0.79087E+02</wgt>
<wgt id='2642'>0.79082E+02</wgt>
<wgt id='2643'>0.79081E+02</wgt>
<wgt id='2644'>0.79065E+02</wgt>
<wgt id='2645'>0.79074E+02</wgt>
<wgt id='2646'>0.79065E+02</wgt>
<wgt id='2647'>0.79076E+02</wgt>
<wgt id='2648'>0.79073E+02</wgt>
<wgt id='2649'>0.79074E+02</wgt>
<wgt id='2650'>0.79071E+02</wgt>
<wgt id='2651'>0.77685E+02</wgt>
<wgt id='2652'>0.80350E+02</wgt>
<wgt id='2700'>0.76372E+02</wgt>
<wgt id='2701'>0.77685E+02</wgt>
<wgt id='2702'>0.78429E+02</wgt>
<wgt id='2703'>0.79661E+02</wgt>
<wgt id='2704'>0.80350E+02</wgt>
<wgt id='2705'>0.81573E+02</wgt>
<wgt id='2800'>0.80329E+02</wgt>
<wgt id='4000'>0.79936E+02</wgt>
<wgt id='4001'>0.80235E+02</wgt>
<wgt id='4002'>0.79809E+02</wgt>
<wgt id='4003'>0.80329E+02</wgt>
<wgt id='4004'>0.79382E+02</wgt>
<wgt id='4005'>0.79556E+02</wgt>
<wgt id='4006'>0.80259E+02</wgt>
<wgt id='4007'>0.80834E+02</wgt>
<wgt id='4008'>0.79043E+02</wgt>
<wgt id='4009'>0.80295E+02</wgt>
<wgt id='4010'>0.79635E+02</wgt>
<wgt id='4011'>0.80211E+02</wgt>
<wgt id='4012'>0.79651E+02</wgt>
<wgt id='4013'>0.80293E+02</wgt>
<wgt id='4014'>0.79624E+02</wgt>
<wgt id='4015'>0.79566E+02</wgt>
<wgt id='4016'>0.80120E+02</wgt>
<wgt id='4017'>0.79857E+02</wgt>
<wgt id='4018'>0.80047E+02</wgt>
<wgt id='4019'>0.80395E+02</wgt>
<wgt id='4020'>0.79202E+02</wgt>
<wgt id='4021'>0.79986E+02</wgt>
<wgt id='4022'>0.79822E+02</wgt>
<wgt id='4023'>0.79699E+02</wgt>
<wgt id='4024'>0.80165E+02</wgt>
<wgt id='4025'>0.80164E+02</wgt>
<wgt id='4026'>0.79370E+02</wgt>
<wgt id='4027'>0.79838E+02</wgt>
<wgt id='4028'>0.80004E+02</wgt>
<wgt id='4029'>0.79374E+02</wgt>
<wgt id='4030'>0.79860E+02</wgt>
<wgt id='4031'>0.79810E+02</wgt>
<wgt id='4032'>0.79751E+02</wgt>
<wgt id='4033'>0.79869E+02</wgt>
<wgt id='4034'>0.79781E+02</wgt>
<wgt id='4035'>0.80702E+02</wgt>
<wgt id='4036'>0.79296E+02</wgt>
<wgt id='4037'>0.81074E+02</wgt>
<wgt id='4038'>0.78988E+02</wgt>
<wgt id='4039'>0.81172E+02</wgt>
<wgt id='4040'>0.78641E+02</wgt>
<wgt id='4041'>0.79938E+02</wgt>
<wgt id='4042'>0.79846E+02</wgt>
<wgt id='4043'>0.79189E+02</wgt>
<wgt id='4044'>0.80064E+02</wgt>
<wgt id='4045'>0.81411E+02</wgt>
<wgt id='4046'>0.79201E+02</wgt>
<wgt id='4047'>0.79095E+02</wgt>
<wgt id='4048'>0.80229E+02</wgt>
<wgt id='4049'>0.79818E+02</wgt>
<wgt id='4050'>0.79970E+02</wgt>
<wgt id='4051'>0.81033E+02</wgt>
<wgt id='4052'>0.78917E+02</wgt>
<wgt id='4053'>0.80492E+02</wgt>
<wgt id='4054'>0.79047E+02</wgt>
<wgt id='4055'>0.80274E+02</wgt>
<wgt id='4056'>0.79515E+02</wgt>
<wgt id='4057'>0.79213E+02</wgt>
<wgt id='4058'>0.80438E+02</wgt>
<wgt id='4100'>0.80688E+02</wgt>
<wgt id='4101'>0.80327E+02</wgt>
<wgt id='4102'>0.79519E+02</wgt>
<wgt id='4103'>0.79081E+02</wgt>
<wgt id='4200'>0.77311E+02</wgt>
<wgt id='4201'>0.77386E+02</wgt>
<wgt id='4202'>0.77402E+02</wgt>
<wgt id='4203'>0.76788E+02</wgt>
<wgt id='4204'>0.77724E+02</wgt>
<wgt id='4205'>0.77274E+02</wgt>
<wgt id='4206'>0.77432E+02</wgt>
<wgt id='4207'>0.77222E+02</wgt>
<wgt id='4208'>0.77377E+02</wgt>
<wgt id='4209'>0.77373E+02</wgt>
<wgt id='4210'>0.77342E+02</wgt>
<wgt id='4211'>0.78215E+02</wgt>
<wgt id='4212'>0.76587E+02</wgt>
<wgt id='4213'>0.77462E+02</wgt>
<wgt id='4214'>0.77060E+02</wgt>
<wgt id='4215'>0.77387E+02</wgt>
<wgt id='4216'>0.76993E+02</wgt>
<wgt id='4217'>0.76999E+02</wgt>
<wgt id='4218'>0.77538E+02</wgt>
<wgt id='4219'>0.76383E+02</wgt>
<wgt id='4220'>0.78136E+02</wgt>
<wgt id='4221'>0.76712E+02</wgt>
<wgt id='4222'>0.77957E+02</wgt>
<wgt id='4223'>0.77728E+02</wgt>
<wgt id='4224'>0.76742E+02</wgt>
<wgt id='4225'>0.75973E+02</wgt>
<wgt id='4226'>0.78515E+02</wgt>
<wgt id='4227'>0.77720E+02</wgt>
<wgt id='4228'>0.76953E+02</wgt>
<wgt id='4229'>0.76749E+02</wgt>
<wgt id='4230'>0.77675E+02</wgt>
<wgt id='4231'>0.77246E+02</wgt>
<wgt id='4232'>0.77342E+02</wgt>
<wgt id='4233'>0.77505E+02</wgt>
<wgt id='4234'>0.76957E+02</wgt>
<wgt id='4235'>0.77707E+02</wgt>
<wgt id='4236'>0.76944E+02</wgt>
<wgt id='4237'>0.77500E+02</wgt>
<wgt id='4238'>0.76942E+02</wgt>
<wgt id='4239'>0.77852E+02</wgt>
<wgt id='4240'>0.76125E+02</wgt>
<wgt id='4241'>0.76940E+02</wgt>
<wgt id='4242'>0.77704E+02</wgt>
<wgt id='4243'>0.77324E+02</wgt>
<wgt id='4244'>0.77400E+02</wgt>
<wgt id='4245'>0.76555E+02</wgt>
<wgt id='4246'>0.78032E+02</wgt>
<wgt id='4247'>0.77005E+02</wgt>
<wgt id='4248'>0.77469E+02</wgt>
<wgt id='4249'>0.78324E+02</wgt>
<wgt id='4250'>0.76085E+02</wgt>
<wgt id='4251'>0.76464E+02</wgt>
<wgt id='4252'>0.77756E+02</wgt>
<wgt id='4253'>0.76891E+02</wgt>
<wgt id='4254'>0.77578E+02</wgt>
<wgt id='4255'>0.77606E+02</wgt>
<wgt id='4256'>0.77022E+02</wgt>
<wgt id='4257'>0.75904E+02</wgt>
<wgt id='4258'>0.77723E+02</wgt>
<wgt id='4300'>0.79153E+02</wgt>
<wgt id='4301'>0.78614E+02</wgt>
<wgt id='5000'>0.79923E+02</wgt>
<wgt id='5001'>0.79957E+02</wgt>
<wgt id='5002'>0.79880E+02</wgt>
<wgt id='5003'>0.79941E+02</wgt>
<wgt id='5004'>0.79907E+02</wgt>
<wgt id='5005'>0.79925E+02</wgt>
<wgt id='5006'>0.79920E+02</wgt>
<wgt id='5007'>0.79984E+02</wgt>
<wgt id='5008'>0.79874E+02</wgt>
<wgt id='5009'>0.80021E+02</wgt>
<wgt id='5010'>0.79822E+02</wgt>
<wgt id='5011'>0.80095E+02</wgt>
<wgt id='5012'>0.79758E+02</wgt>
<wgt id='5013'>0.80023E+02</wgt>
<wgt id='5014'>0.79853E+02</wgt>
<wgt id='5015'>0.79539E+02</wgt>
<wgt id='5016'>0.79539E+02</wgt>
<wgt id='5017'>0.80363E+02</wgt>
<wgt id='5018'>0.79627E+02</wgt>
<wgt id='5019'>0.80234E+02</wgt>
<wgt id='5020'>0.79498E+02</wgt>
<wgt id='5021'>0.80026E+02</wgt>
<wgt id='5022'>0.79763E+02</wgt>
<wgt id='5023'>0.79826E+02</wgt>
<wgt id='5024'>0.80156E+02</wgt>
<wgt id='5025'>0.79608E+02</wgt>
<wgt id='5026'>0.80278E+02</wgt>
<wgt id='5027'>0.79956E+02</wgt>
<wgt id='5028'>0.79836E+02</wgt>
<wgt id='5029'>0.80533E+02</wgt>
<wgt id='5030'>0.79577E+02</wgt>
<wgt id='5031'>0.79627E+02</wgt>
<wgt id='5032'>0.80815E+02</wgt>
<wgt id='5033'>0.79928E+02</wgt>
<wgt id='5034'>0.79918E+02</wgt>
<wgt id='5035'>0.79926E+02</wgt>
<wgt id='5036'>0.79923E+02</wgt>
<wgt id='5037'>0.79821E+02</wgt>
<wgt id='5038'>0.79982E+02</wgt>
<wgt id='5039'>0.80122E+02</wgt>
<wgt id='5040'>0.79436E+02</wgt>
<wgt id='5041'>0.80136E+02</wgt>
<wgt id='5042'>0.79713E+02</wgt>
<wgt id='5043'>0.80015E+02</wgt>
<wgt id='5044'>0.79888E+02</wgt>
<wgt id='5045'>0.79828E+02</wgt>
<wgt id='5046'>0.80016E+02</wgt>
<wgt id='5047'>0.79961E+02</wgt>
<wgt id='5048'>0.79760E+02</wgt>
<wgt id='5049'>0.79885E+02</wgt>
<wgt id='5050'>0.80007E+02</wgt>
<wgt id='5051'>0.80065E+02</wgt>
<wgt id='5052'>0.79798E+02</wgt>
<wgt id='5053'>0.79787E+02</wgt>
<wgt id='5054'>0.80080E+02</wgt>
<wgt id='5055'>0.79993E+02</wgt>
<wgt id='5056'>0.79940E+02</wgt>
<wgt id='5057'>0.79680E+02</wgt>
<wgt id='5058'>0.80093E+02</wgt>
<wgt id='5059'>0.79894E+02</wgt>
<wgt id='5060'>0.79950E+02</wgt>
<wgt id='5061'>0.80129E+02</wgt>
<wgt id='5062'>0.79973E+02</wgt>
<wgt id='5063'>0.80183E+02</wgt>
<wgt id='5064'>0.79896E+02</wgt>
<wgt id='5100'>0.79923E+02</wgt>
<wgt id='5101'>0.79942E+02</wgt>
<wgt id='6000'>0.79896E+02</wgt>
<wgt id='6001'>0.79967E+02</wgt>
<wgt id='6002'>0.79987E+02</wgt>
<wgt id='6003'>0.79809E+02</wgt>
<wgt id='6004'>0.79858E+02</wgt>
<wgt id='6005'>0.79713E+02</wgt>
<wgt id='6006'>0.80105E+02</wgt>
<wgt id='6007'>0.79736E+02</wgt>
<wgt id='6008'>0.79312E+02</wgt>
<wgt id='6009'>0.80060E+02</wgt>
<wgt id='6010'>0.78894E+02</wgt>
<wgt id='6011'>0.79867E+02</wgt>
<wgt id='6012'>0.80122E+02</wgt>
<wgt id='6013'>0.79636E+02</wgt>
<wgt id='6014'>0.79799E+02</wgt>
<wgt id='6015'>0.79468E+02</wgt>
<wgt id='6016'>0.80001E+02</wgt>
<wgt id='6017'>0.79820E+02</wgt>
<wgt id='6018'>0.79711E+02</wgt>
<wgt id='6019'>0.79896E+02</wgt>
<wgt id='6020'>0.80064E+02</wgt>
<wgt id='6021'>0.79894E+02</wgt>
<wgt id='6022'>0.79951E+02</wgt>
<wgt id='6023'>0.79895E+02</wgt>
<wgt id='6024'>0.79960E+02</wgt>
<wgt id='6025'>0.80136E+02</wgt>
<wgt id='6026'>0.79884E+02</wgt>
<wgt id='6027'>0.79907E+02</wgt>
<wgt id='6028'>0.79747E+02</wgt>
<wgt id='6029'>0.79810E+02</wgt>
<wgt id='6030'>0.80096E+02</wgt>
<wgt id='6031'>0.79731E+02</wgt>
<wgt id='6032'>0.79936E+02</wgt>
<wgt id='6033'>0.79821E+02</wgt>
<wgt id='6034'>0.80104E+02</wgt>
<wgt id='6035'>0.79939E+02</wgt>
<wgt id='6036'>0.80323E+02</wgt>
<wgt id='6037'>0.79899E+02</wgt>
<wgt id='6038'>0.79927E+02</wgt>
<wgt id='6039'>0.80006E+02</wgt>
<wgt id='6040'>0.79886E+02</wgt>
<wgt id='6041'>0.78787E+02</wgt>
<wgt id='6042'>0.80778E+02</wgt>
<wgt id='7000'>0.79728E+02</wgt>
<wgt id='7001'>0.79342E+02</wgt>
<wgt id='7002'>0.79502E+02</wgt>
<wgt id='7003'>0.79421E+02</wgt>
<wgt id='7004'>0.79423E+02</wgt>
<wgt id='7005'>0.79540E+02</wgt>
<wgt id='7006'>0.79304E+02</wgt>
<wgt id='7007'>0.79894E+02</wgt>
<wgt id='7008'>0.78963E+02</wgt>
<wgt id='7009'>0.79145E+02</wgt>
<wgt id='7010'>0.79709E+02</wgt>
<wgt id='7011'>0.79683E+02</wgt>
<wgt id='7012'>0.79164E+02</wgt>
<wgt id='7013'>0.79278E+02</wgt>
<wgt id='7014'>0.79559E+02</wgt>
<wgt id='7015'>0.79355E+02</wgt>
<wgt id='7016'>0.79296E+02</wgt>
<wgt id='7017'>0.79423E+02</wgt>
<wgt id='7018'>0.79422E+02</wgt>
<wgt id='7019'>0.79320E+02</wgt>
<wgt id='7020'>0.79531E+02</wgt>
<wgt id='7021'>0.79491E+02</wgt>
<wgt id='7022'>0.79321E+02</wgt>
<wgt id='7023'>0.79087E+02</wgt>
<wgt id='7024'>0.79765E+02</wgt>
<wgt id='7025'>0.78553E+02</wgt>
<wgt id='7026'>0.80198E+02</wgt>
<wgt id='7027'>0.79091E+02</wgt>
<wgt id='7028'>0.79814E+02</wgt>
<wgt id='8000'>0.79925E+02</wgt>
<wgt id='8001'>0.79914E+02</wgt>
<wgt id='8002'>0.79950E+02</wgt>
<wgt id='8003'>0.79928E+02</wgt>
<wgt id='8004'>0.79923E+02</wgt>
<wgt id='8005'>0.79770E+02</wgt>
<wgt id='8006'>0.79986E+02</wgt>
<wgt id='8007'>0.80040E+02</wgt>
<wgt id='8008'>0.80099E+02</wgt>
<wgt id='8009'>0.80256E+02</wgt>
<wgt id='8010'>0.79851E+02</wgt>
<wgt id='8011'>0.79931E+02</wgt>
<wgt id='8012'>0.79662E+02</wgt>
<wgt id='8013'>0.79789E+02</wgt>
<wgt id='8014'>0.80077E+02</wgt>
<wgt id='8015'>0.79877E+02</wgt>
<wgt id='8016'>0.79994E+02</wgt>
<wgt id='8017'>0.79968E+02</wgt>
<wgt id='8018'>0.80094E+02</wgt>
<wgt id='8019'>0.79989E+02</wgt>
<wgt id='8020'>0.79854E+02</wgt>
<wgt id='8021'>0.79867E+02</wgt>
<wgt id='8022'>0.79790E+02</wgt>
<wgt id='8023'>0.79864E+02</wgt>
<wgt id='8024'>0.79746E+02</wgt>
<wgt id='8025'>0.79931E+02</wgt>
<wgt id='8026'>0.80039E+02</wgt>
<wgt id='8027'>0.79945E+02</wgt>
<wgt id='8028'>0.79986E+02</wgt>
<wgt id='8029'>0.79824E+02</wgt>
<wgt id='3000'>0.81104E+02</wgt>
<wgt id='3001'>0.80732E+02</wgt>
<wgt id='3002'>0.79631E+02</wgt>
<wgt id='3003'>0.79994E+02</wgt>
<wgt id='3004'>0.81873E+02</wgt>
<wgt id='3005'>0.81516E+02</wgt>
<wgt id='3006'>0.83357E+02</wgt>
<wgt id='3007'>0.80701E+02</wgt>
<wgt id='3008'>0.80549E+02</wgt>
<wgt id='3009'>0.81190E+02</wgt>
<wgt id='3010'>0.82722E+02</wgt>
<wgt id='3011'>0.81822E+02</wgt>
<wgt id='3012'>0.81272E+02</wgt>
<wgt id='3013'>0.80589E+02</wgt>
<wgt id='3014'>0.80653E+02</wgt>
<wgt id='3015'>0.80701E+02</wgt>
<wgt id='3016'>0.81784E+02</wgt>
<wgt id='3017'>0.82703E+02</wgt>
<wgt id='3018'>0.80775E+02</wgt>
<wgt id='3019'>0.79834E+02</wgt>
<wgt id='3020'>0.80917E+02</wgt>
<wgt id='3021'>0.79519E+02</wgt>
<wgt id='3022'>0.79552E+02</wgt>
<wgt id='3023'>0.79807E+02</wgt>
<wgt id='3024'>0.80637E+02</wgt>
<wgt id='3025'>0.80095E+02</wgt>
<wgt id='3026'>0.80804E+02</wgt>
<wgt id='3027'>0.79868E+02</wgt>
<wgt id='3028'>0.80365E+02</wgt>
<wgt id='3029'>0.82279E+02</wgt>
<wgt id='3030'>0.82070E+02</wgt>
<wgt id='3031'>0.81161E+02</wgt>
<wgt id='3032'>0.82024E+02</wgt>
<wgt id='3033'>0.80344E+02</wgt>
<wgt id='3034'>0.81656E+02</wgt>
<wgt id='3035'>0.81963E+02</wgt>
<wgt id='3036'>0.81448E+02</wgt>
<wgt id='3037'>0.81089E+02</wgt>
<wgt id='3038'>0.81120E+02</wgt>
<wgt id='3039'>0.80806E+02</wgt>
<wgt id='3040'>0.81219E+02</wgt>
<wgt id='3041'>0.81716E+02</wgt>
<wgt id='3042'>0.80915E+02</wgt>
<wgt id='3043'>0.81265E+02</wgt>
<wgt id='3044'>0.81080E+02</wgt>
<wgt id='3045'>0.81436E+02</wgt>
<wgt id='3046'>0.81756E+02</wgt>
<wgt id='3047'>0.79838E+02</wgt>
<wgt id='3048'>0.80363E+02</wgt>
<wgt id='3049'>0.80679E+02</wgt>
<wgt id='3050'>0.82149E+02</wgt>
<wgt id='3051'>0.80837E+02</wgt>
<wgt id='3052'>0.80367E+02</wgt>
<wgt id='3053'>0.80779E+02</wgt>
<wgt id='3054'>0.79943E+02</wgt>
<wgt id='3055'>0.80485E+02</wgt>
<wgt id='3056'>0.80964E+02</wgt>
<wgt id='3057'>0.80435E+02</wgt>
<wgt id='3058'>0.80466E+02</wgt>
<wgt id='3059'>0.82599E+02</wgt>
<wgt id='3060'>0.81231E+02</wgt>
<wgt id='3061'>0.80557E+02</wgt>
<wgt id='3062'>0.80799E+02</wgt>
<wgt id='3063'>0.80344E+02</wgt>
<wgt id='3064'>0.81184E+02</wgt>
<wgt id='3065'>0.80580E+02</wgt>
<wgt id='3066'>0.81651E+02</wgt>
<wgt id='3067'>0.79562E+02</wgt>
<wgt id='3068'>0.81520E+02</wgt>
<wgt id='3069'>0.81072E+02</wgt>
<wgt id='3070'>0.80149E+02</wgt>
<wgt id='3071'>0.81814E+02</wgt>
<wgt id='3072'>0.80195E+02</wgt>
<wgt id='3073'>0.82015E+02</wgt>
<wgt id='3074'>0.81537E+02</wgt>
<wgt id='3075'>0.82307E+02</wgt>
<wgt id='3076'>0.82535E+02</wgt>
<wgt id='3077'>0.80909E+02</wgt>
<wgt id='3078'>0.80561E+02</wgt>
<wgt id='3079'>0.81227E+02</wgt>
<wgt id='3080'>0.81629E+02</wgt>
<wgt id='3081'>0.80161E+02</wgt>
<wgt id='3082'>0.81784E+02</wgt>
<wgt id='3083'>0.81332E+02</wgt>
<wgt id='3084'>0.81153E+02</wgt>
<wgt id='3085'>0.79967E+02</wgt>
<wgt id='3086'>0.80272E+02</wgt>
<wgt id='3087'>0.81418E+02</wgt>
<wgt id='3088'>0.82440E+02</wgt>
<wgt id='3089'>0.84346E+02</wgt>
<wgt id='3090'>0.81589E+02</wgt>
<wgt id='3091'>0.80821E+02</wgt>
<wgt id='3092'>0.82542E+02</wgt>
<wgt id='3093'>0.81868E+02</wgt>
<wgt id='3094'>0.81282E+02</wgt>
<wgt id='3095'>0.81368E+02</wgt>
<wgt id='3096'>0.80195E+02</wgt>
<wgt id='3097'>0.81224E+02</wgt>
<wgt id='3098'>0.82166E+02</wgt>
<wgt id='3099'>0.80574E+02</wgt>
<wgt id='3100'>0.81065E+02</wgt>
<wgt id='3200'>0.79092E+02</wgt>
<wgt id='3201'>0.79456E+02</wgt>
<wgt id='3202'>0.78044E+02</wgt>
<wgt id='3203'>0.79239E+02</wgt>
<wgt id='3204'>0.78285E+02</wgt>
<wgt id='3205'>0.79365E+02</wgt>
<wgt id='3206'>0.79818E+02</wgt>
<wgt id='3207'>0.79977E+02</wgt>
<wgt id='3208'>0.79700E+02</wgt>
<wgt id='3209'>0.78832E+02</wgt>
<wgt id='3210'>0.79050E+02</wgt>
<wgt id='3211'>0.79838E+02</wgt>
<wgt id='3212'>0.78643E+02</wgt>
<wgt id='3213'>0.78801E+02</wgt>
<wgt id='3214'>0.78346E+02</wgt>
<wgt id='3215'>0.79181E+02</wgt>
<wgt id='3216'>0.79766E+02</wgt>
<wgt id='3217'>0.79602E+02</wgt>
<wgt id='3218'>0.79498E+02</wgt>
<wgt id='3219'>0.79218E+02</wgt>
<wgt id='3220'>0.78430E+02</wgt>
<wgt id='3221'>0.79672E+02</wgt>
<wgt id='3222'>0.79920E+02</wgt>
<wgt id='3223'>0.79383E+02</wgt>
<wgt id='3224'>0.78822E+02</wgt>
<wgt id='3225'>0.79924E+02</wgt>
<wgt id='3226'>0.78888E+02</wgt>
<wgt id='3227'>0.78294E+02</wgt>
<wgt id='3228'>0.78400E+02</wgt>
<wgt id='3229'>0.79692E+02</wgt>
<wgt id='3230'>0.79568E+02</wgt>
<wgt id='3231'>0.79205E+02</wgt>
<wgt id='3232'>0.79395E+02</wgt>
<wgt id='3233'>0.79324E+02</wgt>
<wgt id='3234'>0.78837E+02</wgt>
<wgt id='3235'>0.78816E+02</wgt>
<wgt id='3236'>0.78336E+02</wgt>
<wgt id='3237'>0.79095E+02</wgt>
<wgt id='3238'>0.78570E+02</wgt>
<wgt id='3239'>0.78986E+02</wgt>
<wgt id='3240'>0.78717E+02</wgt>
<wgt id='3241'>0.79854E+02</wgt>
<wgt id='3242'>0.78387E+02</wgt>
<wgt id='3243'>0.78531E+02</wgt>
<wgt id='3244'>0.78814E+02</wgt>
<wgt id='3245'>0.79440E+02</wgt>
<wgt id='3246'>0.78049E+02</wgt>
<wgt id='3247'>0.78962E+02</wgt>
<wgt id='3248'>0.78621E+02</wgt>
<wgt id='3249'>0.78582E+02</wgt>
<wgt id='3250'>0.79707E+02</wgt>
<wgt id='3251'>0.78815E+02</wgt>
<wgt id='3252'>0.79254E+02</wgt>
<wgt id='3253'>0.79024E+02</wgt>
<wgt id='3254'>0.79129E+02</wgt>
<wgt id='3255'>0.78828E+02</wgt>
<wgt id='3256'>0.78856E+02</wgt>
<wgt id='3257'>0.79121E+02</wgt>
<wgt id='3258'>0.79177E+02</wgt>
<wgt id='3259'>0.78725E+02</wgt>
<wgt id='3260'>0.78969E+02</wgt>
<wgt id='3261'>0.79106E+02</wgt>
<wgt id='3262'>0.78963E+02</wgt>
<wgt id='3263'>0.79828E+02</wgt>
<wgt id='3264'>0.79256E+02</wgt>
<wgt id='3265'>0.79478E+02</wgt>
<wgt id='3266'>0.79095E+02</wgt>
<wgt id='3267'>0.78920E+02</wgt>
<wgt id='3268'>0.79490E+02</wgt>
<wgt id='3269'>0.79225E+02</wgt>
<wgt id='3270'>0.79726E+02</wgt>
<wgt id='3271'>0.79369E+02</wgt>
<wgt id='3272'>0.79435E+02</wgt>
<wgt id='3273'>0.78959E+02</wgt>
<wgt id='3274'>0.78888E+02</wgt>
<wgt id='3275'>0.79388E+02</wgt>
<wgt id='3276'>0.78716E+02</wgt>
<wgt id='3277'>0.79098E+02</wgt>
<wgt id='3278'>0.79027E+02</wgt>
<wgt id='3279'>0.79575E+02</wgt>
<wgt id='3280'>0.78780E+02</wgt>
<wgt id='3281'>0.79160E+02</wgt>
<wgt id='3282'>0.79256E+02</wgt>
<wgt id='3283'>0.79219E+02</wgt>
<wgt id='3284'>0.79043E+02</wgt>
<wgt id='3285'>0.78579E+02</wgt>
<wgt id='3286'>0.78699E+02</wgt>
<wgt id='3287'>0.79053E+02</wgt>
<wgt id='3288'>0.79451E+02</wgt>
<wgt id='3289'>0.80314E+02</wgt>
<wgt id='3290'>0.79462E+02</wgt>
<wgt id='3291'>0.77932E+02</wgt>
<wgt id='3292'>0.78916E+02</wgt>
<wgt id='3293'>0.78891E+02</wgt>
<wgt id='3294'>0.78138E+02</wgt>
<wgt id='3295'>0.78878E+02</wgt>
<wgt id='3296'>0.79991E+02</wgt>
<wgt id='3297'>0.79043E+02</wgt>
<wgt id='3298'>0.78756E+02</wgt>
<wgt id='3299'>0.78893E+02</wgt>
<wgt id='3300'>0.79376E+02</wgt>
<wgt id='3301'>0.77685E+02</wgt>
<wgt id='3302'>0.80350E+02</wgt>
<wgt id='3400'>0.78673E+02</wgt>
<wgt id='3401'>0.78589E+02</wgt>
<wgt id='3402'>0.77753E+02</wgt>
<wgt id='3403'>0.79605E+02</wgt>
<wgt id='3404'>0.80059E+02</wgt>
<wgt id='3405'>0.79198E+02</wgt>
<wgt id='3406'>0.79290E+02</wgt>
<wgt id='3407'>0.78419E+02</wgt>
<wgt id='3408'>0.79981E+02</wgt>
<wgt id='3409'>0.79564E+02</wgt>
<wgt id='3410'>0.78734E+02</wgt>
<wgt id='3411'>0.79616E+02</wgt>
<wgt id='3412'>0.79479E+02</wgt>
<wgt id='3413'>0.78625E+02</wgt>
<wgt id='3414'>0.78175E+02</wgt>
<wgt id='3415'>0.78435E+02</wgt>
<wgt id='3416'>0.78007E+02</wgt>
<wgt id='3417'>0.79076E+02</wgt>
<wgt id='3418'>0.77965E+02</wgt>
<wgt id='3419'>0.78167E+02</wgt>
<wgt id='3420'>0.78656E+02</wgt>
<wgt id='3421'>0.78603E+02</wgt>
<wgt id='3422'>0.79246E+02</wgt>
<wgt id='3423'>0.79149E+02</wgt>
<wgt id='3424'>0.79208E+02</wgt>
<wgt id='3425'>0.78380E+02</wgt>
<wgt id='3426'>0.78632E+02</wgt>
<wgt id='3427'>0.78428E+02</wgt>
<wgt id='3428'>0.79726E+02</wgt>
<wgt id='3429'>0.77972E+02</wgt>
<wgt id='3430'>0.79064E+02</wgt>
<wgt id='3431'>0.78869E+02</wgt>
<wgt id='3432'>0.79000E+02</wgt>
<wgt id='3433'>0.77638E+02</wgt>
<wgt id='3434'>0.78847E+02</wgt>
<wgt id='3435'>0.78871E+02</wgt>
<wgt id='3436'>0.78555E+02</wgt>
<wgt id='3437'>0.79066E+02</wgt>
<wgt id='3438'>0.77936E+02</wgt>
<wgt id='3439'>0.78699E+02</wgt>
<wgt id='3440'>0.78695E+02</wgt>
<wgt id='3441'>0.78427E+02</wgt>
<wgt id='3442'>0.77220E+02</wgt>
<wgt id='3443'>0.78709E+02</wgt>
<wgt id='3444'>0.78297E+02</wgt>
<wgt id='3445'>0.78413E+02</wgt>
<wgt id='3446'>0.78898E+02</wgt>
<wgt id='3447'>0.79510E+02</wgt>
<wgt id='3448'>0.79714E+02</wgt>
<wgt id='3449'>0.79275E+02</wgt>
<wgt id='3450'>0.78555E+02</wgt>
<wgt id='3451'>0.79695E+02</wgt>
<wgt id='3452'>0.78347E+02</wgt>
<wgt id='3453'>0.77898E+02</wgt>
<wgt id='3454'>0.78076E+02</wgt>
<wgt id='3455'>0.79360E+02</wgt>
<wgt id='3456'>0.78976E+02</wgt>
<wgt id='3457'>0.79429E+02</wgt>
<wgt id='3458'>0.78628E+02</wgt>
<wgt id='3459'>0.78492E+02</wgt>
<wgt id='3460'>0.78441E+02</wgt>
<wgt id='3461'>0.77887E+02</wgt>
<wgt id='3462'>0.78346E+02</wgt>
<wgt id='3463'>0.77731E+02</wgt>
<wgt id='3464'>0.79254E+02</wgt>
<wgt id='3465'>0.78741E+02</wgt>
<wgt id='3466'>0.78947E+02</wgt>
<wgt id='3467'>0.78468E+02</wgt>
<wgt id='3468'>0.77755E+02</wgt>
<wgt id='3469'>0.78524E+02</wgt>
<wgt id='3470'>0.78619E+02</wgt>
<wgt id='3471'>0.78515E+02</wgt>
<wgt id='3472'>0.77958E+02</wgt>
<wgt id='3473'>0.79252E+02</wgt>
<wgt id='3474'>0.78418E+02</wgt>
<wgt id='3475'>0.78734E+02</wgt>
<wgt id='3476'>0.78792E+02</wgt>
<wgt id='3477'>0.78059E+02</wgt>
<wgt id='3478'>0.79236E+02</wgt>
<wgt id='3479'>0.79339E+02</wgt>
<wgt id='3480'>0.78591E+02</wgt>
<wgt id='3481'>0.79103E+02</wgt>
<wgt id='3482'>0.78575E+02</wgt>
<wgt id='3483'>0.77733E+02</wgt>
<wgt id='3484'>0.78211E+02</wgt>
<wgt id='3485'>0.78384E+02</wgt>
<wgt id='3486'>0.77129E+02</wgt>
<wgt id='3487'>0.78781E+02</wgt>
<wgt id='3488'>0.79376E+02</wgt>
<wgt id='3489'>0.77838E+02</wgt>
<wgt id='3490'>0.79002E+02</wgt>
<wgt id='3491'>0.79283E+02</wgt>
<wgt id='3492'>0.78749E+02</wgt>
<wgt id='3493'>0.78670E+02</wgt>
<wgt id='3494'>0.76819E+02</wgt>
<wgt id='3495'>0.78773E+02</wgt>
<wgt id='3496'>0.77746E+02</wgt>
<wgt id='3497'>0.78148E+02</wgt>
<wgt id='3498'>0.79334E+02</wgt>
<wgt id='3499'>0.78508E+02</wgt>
<wgt id='3500'>0.79566E+02</wgt>
</rwgt>
</event>
<event>
     13 322200  8.11039E+01  1.81941E+01 -1.00000E+00  1.66813E-01
      21    -1     0     0   503   504  0.000000000E+00  0.000000000E+00  1.261644764E+03  1.261644764E+03  0.000000000E+00  0.00000E+00  9.000E+00
      21    -1     0     0   504   505  0.000000000E+00  0.000000000E+00 -5.208292053E+01  5.208292053E+01  0.000000000E+00  0.00000E+00  9.000E+00
       6     2     1     2   502     0  1.484021548E+02 -4.950090986E+00  7.264550190E+02  7.595142738E+02  1.645519204E+02  0.00000E+00  9.000E+00
      -6     2     1     2     0   505 -1.408010476E+02 -1.158014355E+01  3.189067742E+02  3.890084412E+02  1.722411156E+02  0.00000E+00  9.000E+00
      21     1     1     2   503   502 -7.601107168E+00  1.653023453E+01  1.642000507E+02  1.652049700E+02  2.697398305E-06  0.00000E+00  9.000E+00
      24     2     3     3     0     0  2.471078067E+01  2.986728352E+01  3.509180981E+02  3.625692043E+02  8.252417250E+01  0.00000E+00  9.000E+00
       5     1     3     3   502     0  1.236913741E+02 -3.481737451E+01  3.755369209E+02  3.969450695E+02  5.060000000E+00  0.00000E+00 -1.000E+00
     -24     2     4     4     0     0 -1.005754523E+02 -5.761962456E+01  1.334912711E+02  1.937080450E+02  7.916719337E+01  0.00000E+00  9.000E+00
      -5     1     4     4     0   505 -4.022559532E+01  4.603948101E+01  1.854155031E+02  1.953003961E+02  5.060000000E+00  0.00000E+00  1.000E+00
     -15     1     6     6     0     0  4.707066857E+01  3.757539905E+01  3.052477692E+02  3.111380992E+02  1.777000000E+00  0.00000E+00  1.000E+00
      16     1     6     6     0     0 -2.235988790E+01 -7.708115523E+00  4.567032894E+01  5.143110515E+01  0.000000000E+00  0.00000E+00 -1.000E+00
      11     1     8     8     0     0 -3.125109974E+01  6.858622854E+00  2.510161506E+00  3.209319014E+01  5.100000000E-04  0.00000E+00 -1.000E+00
     -12     1     8     8     0     0 -6.932435255E+01 -6.447824741E+01  1.309811096E+02  1.616148549E+02  0.000000000E+00  0.00000E+00  1.000E+00
#rwgt            1           1   615.75639652987400               10       33454           0
<rwgt>
<wgt id='1001'>0.81104E+02</wgt>
<wgt id='1002'>0.65943E+02</wgt>
<wgt id='1003'>0.97888E+02</wgt>
<wgt id='1004'>0.77277E+02</wgt>
<wgt id='1005'>0.64658E+02</wgt>
<wgt id='1006'>0.91193E+02</wgt>
<wgt id='1007'>0.82486E+02</wgt>
<wgt id='1008'>0.63915E+02</wgt>
<wgt id='1009'>0.10314E+03</wgt>
<wgt id='2000'>0.81104E+02</wgt>
<wgt id='2001'>0.81009E+02</wgt>
<wgt id='2002'>0.81054E+02</wgt>
<wgt id='2003'>0.81059E+02</wgt>
<wgt id='2004'>0.81458E+02</wgt>
<wgt id='2005'>0.80812E+02</wgt>
<wgt id='2006'>0.81284E+02</wgt>
<wgt id='2007'>0.81225E+02</wgt>
<wgt id='2008'>0.81137E+02</wgt>
<wgt id='2009'>0.81241E+02</wgt>
<wgt id='2010'>0.81008E+02</wgt>
<wgt id='2011'>0.81142E+02</wgt>
<wgt id='2012'>0.81415E+02</wgt>
<wgt id='2013'>0.81043E+02</wgt>
<wgt id='2014'>0.81135E+02</wgt>
<wgt id='2015'>0.81229E+02</wgt>
<wgt id='2016'>0.81004E+02</wgt>
<wgt id='2017'>0.81063E+02</wgt>
<wgt id='2018'>0.80830E+02</wgt>
<wgt id='2019'>0.80821E+02</wgt>
<wgt id='2020'>0.80867E+02</wgt>
<wgt id='2021'>0.81168E+02</wgt>
<wgt id='2022'>0.81070E+02</wgt>
<wgt id='2023'>0.81007E+02</wgt>
<wgt id='2024'>0.80710E+02</wgt>
<wgt id='2025'>0.81282E+02</wgt>
<wgt id='2026'>0.81168E+02</wgt>
<wgt id='2027'>0.81526E+02</wgt>
<wgt id='2028'>0.80602E+02</wgt>
<wgt id='2029'>0.80866E+02</wgt>
<wgt id='2030'>0.81229E+02</wgt>
<wgt id='2031'>0.80784E+02</wgt>
<wgt id='2032'>0.80992E+02</wgt>
<wgt id='2033'>0.80940E+02</wgt>
<wgt id='2034'>0.80787E+02</wgt>
<wgt id='2035'>0.81189E+02</wgt>
<wgt id='2036'>0.81209E+02</wgt>
<wgt id='2037'>0.80931E+02</wgt>
<wgt id='2038'>0.81042E+02</wgt>
<wgt id='2039'>0.81000E+02</wgt>
<wgt id='2040'>0.80959E+02</wgt>
<wgt id='2041'>0.80957E+02</wgt>
<wgt id='2042'>0.81268E+02</wgt>
<wgt id='2043'>0.81122E+02</wgt>
<wgt id='2044'>0.81178E+02</wgt>
<wgt id='2045'>0.81116E+02</wgt>
<wgt id='2046'>0.80972E+02</wgt>
<wgt id='2047'>0.81144E+02</wgt>
<wgt id='2048'>0.81085E+02</wgt>
<wgt id='2049'>0.81013E+02</wgt>
<wgt id='2050'>0.81012E+02</wgt>
<wgt id='2051'>0.81009E+02</wgt>
<wgt id='2052'>0.81255E+02</wgt>
<wgt id='2053'>0.81103E+02</wgt>
<wgt id='2054'>0.81078E+02</wgt>
<wgt id='2055'>0.81018E+02</wgt>
<wgt id='2056'>0.81056E+02</wgt>
<wgt id='2057'>0.81139E+02</wgt>
<wgt id='2058'>0.81171E+02</wgt>
<wgt id='2059'>0.81117E+02</wgt>
<wgt id='2060'>0.81070E+02</wgt>
<wgt id='2061'>0.81047E+02</wgt>
<wgt id='2062'>0.81193E+02</wgt>
<wgt id='2063'>0.81116E+02</wgt>
<wgt id='2064'>0.81107E+02</wgt>
<wgt id='2065'>0.81180E+02</wgt>
<wgt id='2066'>0.81053E+02</wgt>
<wgt id='2067'>0.81045E+02</wgt>
<wgt id='2068'>0.81203E+02</wgt>
<wgt id='2069'>0.81095E+02</wgt>
<wgt id='2070'>0.81133E+02</wgt>
<wgt id='2071'>0.81064E+02</wgt>
<wgt id='2072'>0.81064E+02</wgt>
<wgt id='2073'>0.81129E+02</wgt>
<wgt id='2074'>0.81066E+02</wgt>
<wgt id='2075'>0.81088E+02</wgt>
<wgt id='2076'>0.81095E+02</wgt>
<wgt id='2077'>0.81160E+02</wgt>
<wgt id='2078'>0.81121E+02</wgt>
<wgt id='2079'>0.81077E+02</wgt>
<wgt id='2080'>0.81112E+02</wgt>
<wgt id='2081'>0.81082E+02</wgt>
<wgt id='2082'>0.81121E+02</wgt>
<wgt id='2083'>0.81181E+02</wgt>
<wgt id='2084'>0.81095E+02</wgt>
<wgt id='2085'>0.81123E+02</wgt>
<wgt id='2086'>0.81095E+02</wgt>
<wgt id='2087'>0.81115E+02</wgt>
<wgt id='2088'>0.81093E+02</wgt>
<wgt id='2089'>0.81079E+02</wgt>
<wgt id='2090'>0.81131E+02</wgt>
<wgt id='2091'>0.81120E+02</wgt>
<wgt id='2092'>0.81151E+02</wgt>
<wgt id='2093'>0.81065E+02</wgt>
<wgt id='2094'>0.81107E+02</wgt>
<wgt id='2095'>0.81137E+02</wgt>
<wgt id='2096'>0.81081E+02</wgt>
<wgt id='2097'>0.81130E+02</wgt>
<wgt id='2098'>0.81110E+02</wgt>
<wgt id='2099'>0.81120E+02</wgt>
<wgt id='2100'>0.81104E+02</wgt>
<wgt id='2101'>0.79418E+02</wgt>
<wgt id='2102'>0.82662E+02</wgt>
<wgt id='2200'>0.80861E+02</wgt>
<wgt id='2201'>0.72446E+02</wgt>
<wgt id='2202'>0.74141E+02</wgt>
<wgt id='2203'>0.76102E+02</wgt>
<wgt id='2204'>0.77313E+02</wgt>
<wgt id='2205'>0.79937E+02</wgt>
<wgt id='2206'>0.82019E+02</wgt>
<wgt id='2207'>0.84326E+02</wgt>
<wgt id='2208'>0.86600E+02</wgt>
<wgt id='2300'>0.86232E+02</wgt>
<wgt id='2301'>0.86316E+02</wgt>
<wgt id='2302'>0.86190E+02</wgt>
<wgt id='2303'>0.86216E+02</wgt>
<wgt id='2304'>0.86520E+02</wgt>
<wgt id='2305'>0.86294E+02</wgt>
<wgt id='2306'>0.86211E+02</wgt>
<wgt id='2307'>0.86260E+02</wgt>
<wgt id='2308'>0.86087E+02</wgt>
<wgt id='2309'>0.86164E+02</wgt>
<wgt id='2310'>0.85975E+02</wgt>
<wgt id='2311'>0.86248E+02</wgt>
<wgt id='2312'>0.86417E+02</wgt>
<wgt id='2313'>0.86238E+02</wgt>
<wgt id='2314'>0.86236E+02</wgt>
<wgt id='2315'>0.86197E+02</wgt>
<wgt id='2316'>0.86326E+02</wgt>
<wgt id='2317'>0.86249E+02</wgt>
<wgt id='2318'>0.86344E+02</wgt>
<wgt id='2319'>0.86199E+02</wgt>
<wgt id='2320'>0.86298E+02</wgt>
<wgt id='2321'>0.86271E+02</wgt>
<wgt id='2322'>0.86147E+02</wgt>
<wgt id='2323'>0.86102E+02</wgt>
<wgt id='2324'>0.86179E+02</wgt>
<wgt id='2325'>0.86283E+02</wgt>
<wgt id='2326'>0.86188E+02</wgt>
<wgt id='2327'>0.86295E+02</wgt>
<wgt id='2328'>0.86111E+02</wgt>
<wgt id='2329'>0.86206E+02</wgt>
<wgt id='2330'>0.86604E+02</wgt>
<wgt id='2331'>0.86346E+02</wgt>
<wgt id='2332'>0.86087E+02</wgt>
<wgt id='2333'>0.86100E+02</wgt>
<wgt id='2334'>0.86230E+02</wgt>
<wgt id='2335'>0.85674E+02</wgt>
<wgt id='2336'>0.86218E+02</wgt>
<wgt id='2337'>0.86584E+02</wgt>
<wgt id='2338'>0.86216E+02</wgt>
<wgt id='2339'>0.86092E+02</wgt>
<wgt id='2340'>0.86605E+02</wgt>
<wgt id='2341'>0.86480E+02</wgt>
<wgt id='2342'>0.86101E+02</wgt>
<wgt id='2343'>0.86105E+02</wgt>
<wgt id='2344'>0.86192E+02</wgt>
<wgt id='2345'>0.86149E+02</wgt>
<wgt id='2346'>0.86670E+02</wgt>
<wgt id='2347'>0.86285E+02</wgt>
<wgt id='2348'>0.86213E+02</wgt>
<wgt id='2349'>0.86255E+02</wgt>
<wgt id='2350'>0.85893E+02</wgt>
<wgt id='2351'>0.86391E+02</wgt>
<wgt id='2352'>0.86028E+02</wgt>
<wgt id='2353'>0.86267E+02</wgt>
<wgt id='2354'>0.86347E+02</wgt>
<wgt id='2355'>0.86058E+02</wgt>
<wgt id='2356'>0.86151E+02</wgt>
<wgt id='2357'>0.86275E+02</wgt>
<wgt id='2358'>0.86121E+02</wgt>
<wgt id='2359'>0.86159E+02</wgt>
<wgt id='2360'>0.86394E+02</wgt>
<wgt id='2361'>0.86243E+02</wgt>
<wgt id='2362'>0.86312E+02</wgt>
<wgt id='2363'>0.86117E+02</wgt>
<wgt id='2364'>0.86252E+02</wgt>
<wgt id='2365'>0.86104E+02</wgt>
<wgt id='2366'>0.86268E+02</wgt>
<wgt id='2367'>0.86059E+02</wgt>
<wgt id='2368'>0.86263E+02</wgt>
<wgt id='2369'>0.86149E+02</wgt>
<wgt id='2370'>0.86185E+02</wgt>
<wgt id='2371'>0.86177E+02</wgt>
<wgt id='2372'>0.86278E+02</wgt>
<wgt id='2373'>0.86220E+02</wgt>
<wgt id='2374'>0.86364E+02</wgt>
<wgt id='2375'>0.86282E+02</wgt>
<wgt id='2376'>0.86286E+02</wgt>
<wgt id='2377'>0.86258E+02</wgt>
<wgt id='2378'>0.86294E+02</wgt>
<wgt id='2379'>0.86123E+02</wgt>
<wgt id='2380'>0.86165E+02</wgt>
<wgt id='2381'>0.86194E+02</wgt>
<wgt id='2382'>0.86174E+02</wgt>
<wgt id='2383'>0.86196E+02</wgt>
<wgt id='2384'>0.86182E+02</wgt>
<wgt id='2385'>0.86289E+02</wgt>
<wgt id='2386'>0.86201E+02</wgt>
<wgt id='2387'>0.86148E+02</wgt>
<wgt id='2388'>0.86173E+02</wgt>
<wgt id='2389'>0.86212E+02</wgt>
<wgt id='2390'>0.86224E+02</wgt>
<wgt id='2391'>0.86200E+02</wgt>
<wgt id='2392'>0.86232E+02</wgt>
<wgt id='2393'>0.86259E+02</wgt>
<wgt id='2394'>0.86266E+02</wgt>
<wgt id='2395'>0.86241E+02</wgt>
<wgt id='2396'>0.86211E+02</wgt>
<wgt id='2397'>0.86210E+02</wgt>
<wgt id='2398'>0.86219E+02</wgt>
<wgt id='2399'>0.86251E+02</wgt>
<wgt id='2400'>0.86263E+02</wgt>
<wgt id='2401'>0.84731E+02</wgt>
<wgt id='2402'>0.88153E+02</wgt>
<wgt id='2500'>0.83152E+02</wgt>
<wgt id='2501'>0.87581E+02</wgt>
<wgt id='2600'>0.79645E+02</wgt>
<wgt id='2601'>0.79390E+02</wgt>
<wgt id='2602'>0.79716E+02</wgt>
<wgt id='2603'>0.79631E+02</wgt>
<wgt id='2604'>0.79722E+02</wgt>
<wgt id='2605'>0.79546E+02</wgt>
<wgt id='2606'>0.79712E+02</wgt>
<wgt id='2607'>0.79738E+02</wgt>
<wgt id='2608'>0.79765E+02</wgt>
<wgt id='2609'>0.79569E+02</wgt>
<wgt id='2610'>0.79584E+02</wgt>
<wgt id='2611'>0.79635E+02</wgt>
<wgt id='2612'>0.79634E+02</wgt>
<wgt id='2613'>0.79676E+02</wgt>
<wgt id='2614'>0.79560E+02</wgt>
<wgt id='2615'>0.79511E+02</wgt>
<wgt id='2616'>0.79723E+02</wgt>
<wgt id='2617'>0.79468E+02</wgt>
<wgt id='2618'>0.79736E+02</wgt>
<wgt id='2619'>0.79720E+02</wgt>
<wgt id='2620'>0.79434E+02</wgt>
<wgt id='2621'>0.79778E+02</wgt>
<wgt id='2622'>0.79916E+02</wgt>
<wgt id='2623'>0.79603E+02</wgt>
<wgt id='2624'>0.79563E+02</wgt>
<wgt id='2625'>0.79825E+02</wgt>
<wgt id='2626'>0.79739E+02</wgt>
<wgt id='2627'>0.79771E+02</wgt>
<wgt id='2628'>0.79574E+02</wgt>
<wgt id='2629'>0.79774E+02</wgt>
<wgt id='2630'>0.79898E+02</wgt>
<wgt id='2631'>0.79623E+02</wgt>
<wgt id='2632'>0.79382E+02</wgt>
<wgt id='2633'>0.79589E+02</wgt>
<wgt id='2634'>0.79599E+02</wgt>
<wgt id='2635'>0.79445E+02</wgt>
<wgt id='2636'>0.79703E+02</wgt>
<wgt id='2637'>0.79602E+02</wgt>
<wgt id='2638'>0.79593E+02</wgt>
<wgt id='2639'>0.79648E+02</wgt>
<wgt id='2640'>0.79660E+02</wgt>
<wgt id='2641'>0.79558E+02</wgt>
<wgt id='2642'>0.79641E+02</wgt>
<wgt id='2643'>0.79596E+02</wgt>
<wgt id='2644'>0.79631E+02</wgt>
<wgt id='2645'>0.79585E+02</wgt>
<wgt id='2646'>0.79614E+02</wgt>
<wgt id='2647'>0.79644E+02</wgt>
<wgt id='2648'>0.79646E+02</wgt>
<wgt id='2649'>0.79672E+02</wgt>
<wgt id='2650'>0.79665E+02</wgt>
<wgt id='2651'>0.78417E+02</wgt>
<wgt id='2652'>0.80526E+02</wgt>
<wgt id='2700'>0.77360E+02</wgt>
<wgt id='2701'>0.78417E+02</wgt>
<wgt id='2702'>0.79046E+02</wgt>
<wgt id='2703'>0.80212E+02</wgt>
<wgt id='2704'>0.80526E+02</wgt>
<wgt id='2705'>0.81834E+02</wgt>
<wgt id='2800'>0.81757E+02</wgt>
<wgt id='4000'>0.84224E+02</wgt>
<wgt id='4001'>0.84421E+02</wgt>
<wgt id='4002'>0.84275E+02</wgt>
<wgt id='4003'>0.83040E+02</wgt>
<wgt id='4004'>0.85748E+02</wgt>
<wgt id='4005'>0.84704E+02</wgt>
<wgt id='4006'>0.83956E+02</wgt>
<wgt id='4007'>0.84362E+02</wgt>
<wgt id='4008'>0.84153E+02</wgt>
<wgt id='4009'>0.83648E+02</wgt>
<wgt id='4010'>0.84351E+02</wgt>
<wgt id='4011'>0.84807E+02</wgt>
<wgt id='4012'>0.83440E+02</wgt>
<wgt id='4013'>0.84344E+02</wgt>
<wgt id='4014'>0.84287E+02</wgt>
<wgt id='4015'>0.84877E+02</wgt>
<wgt id='4016'>0.85042E+02</wgt>
<wgt id='4017'>0.84365E+02</wgt>
<wgt id='4018'>0.84104E+02</wgt>
<wgt id='4019'>0.83922E+02</wgt>
<wgt id='4020'>0.84876E+02</wgt>
<wgt id='4021'>0.84573E+02</wgt>
<wgt id='4022'>0.83626E+02</wgt>
<wgt id='4023'>0.84740E+02</wgt>
<wgt id='4024'>0.84603E+02</wgt>
<wgt id='4025'>0.84055E+02</wgt>
<wgt id='4026'>0.84774E+02</wgt>
<wgt id='4027'>0.85353E+02</wgt>
<wgt id='4028'>0.83307E+02</wgt>
<wgt id='4029'>0.85591E+02</wgt>
<wgt id='4030'>0.83417E+02</wgt>
<wgt id='4031'>0.84274E+02</wgt>
<wgt id='4032'>0.85856E+02</wgt>
<wgt id='4033'>0.85048E+02</wgt>
<wgt id='4034'>0.83704E+02</wgt>
<wgt id='4035'>0.84313E+02</wgt>
<wgt id='4036'>0.84170E+02</wgt>
<wgt id='4037'>0.87105E+02</wgt>
<wgt id='4038'>0.81991E+02</wgt>
<wgt id='4039'>0.85887E+02</wgt>
<wgt id='4040'>0.82787E+02</wgt>
<wgt id='4041'>0.84765E+02</wgt>
<wgt id='4042'>0.83681E+02</wgt>
<wgt id='4043'>0.84134E+02</wgt>
<wgt id='4044'>0.83673E+02</wgt>
<wgt id='4045'>0.83946E+02</wgt>
<wgt id='4046'>0.84424E+02</wgt>
<wgt id='4047'>0.84874E+02</wgt>
<wgt id='4048'>0.84395E+02</wgt>
<wgt id='4049'>0.84244E+02</wgt>
<wgt id='4050'>0.84349E+02</wgt>
<wgt id='4051'>0.84034E+02</wgt>
<wgt id='4052'>0.84655E+02</wgt>
<wgt id='4053'>0.84125E+02</wgt>
<wgt id='4054'>0.83806E+02</wgt>
<wgt id='4055'>0.84720E+02</wgt>
<wgt id='4056'>0.83725E+02</wgt>
<wgt id='4057'>0.83542E+02</wgt>
<wgt id='4058'>0.84690E+02</wgt>
<wgt id='4100'>0.84510E+02</wgt>
<wgt id='4101'>0.84320E+02</wgt>
<wgt id='4102'>0.84204E+02</wgt>
<wgt id='4103'>0.84230E+02</wgt>
<wgt id='4200'>0.82504E+02</wgt>
<wgt id='4201'>0.82442E+02</wgt>
<wgt id='4202'>0.82754E+02</wgt>
<wgt id='4203'>0.82229E+02</wgt>
<wgt id='4204'>0.82555E+02</wgt>
<wgt id='4205'>0.82506E+02</wgt>
<wgt id='4206'>0.82703E+02</wgt>
<wgt id='4207'>0.83211E+02</wgt>
<wgt id='4208'>0.82159E+02</wgt>
<wgt id='4209'>0.82139E+02</wgt>
<wgt id='4210'>0.82768E+02</wgt>
<wgt id='4211'>0.82832E+02</wgt>
<wgt id='4212'>0.82255E+02</wgt>
<wgt id='4213'>0.82532E+02</wgt>
<wgt id='4214'>0.82456E+02</wgt>
<wgt id='4215'>0.82564E+02</wgt>
<wgt id='4216'>0.82697E+02</wgt>
<wgt id='4217'>0.82604E+02</wgt>
<wgt id='4218'>0.82359E+02</wgt>
<wgt id='4219'>0.82575E+02</wgt>
<wgt id='4220'>0.82538E+02</wgt>
<wgt id='4221'>0.82346E+02</wgt>
<wgt id='4222'>0.82979E+02</wgt>
<wgt id='4223'>0.81348E+02</wgt>
<wgt id='4224'>0.82431E+02</wgt>
<wgt id='4225'>0.81954E+02</wgt>
<wgt id='4226'>0.83502E+02</wgt>
<wgt id='4227'>0.83202E+02</wgt>
<wgt id='4228'>0.81920E+02</wgt>
<wgt id='4229'>0.81252E+02</wgt>
<wgt id='4230'>0.83658E+02</wgt>
<wgt id='4231'>0.83027E+02</wgt>
<wgt id='4232'>0.81699E+02</wgt>
<wgt id='4233'>0.82802E+02</wgt>
<wgt id='4234'>0.81615E+02</wgt>
<wgt id='4235'>0.83585E+02</wgt>
<wgt id='4236'>0.81421E+02</wgt>
<wgt id='4237'>0.84056E+02</wgt>
<wgt id='4238'>0.80302E+02</wgt>
<wgt id='4239'>0.82277E+02</wgt>
<wgt id='4240'>0.82756E+02</wgt>
<wgt id='4241'>0.82716E+02</wgt>
<wgt id='4242'>0.82276E+02</wgt>
<wgt id='4243'>0.83017E+02</wgt>
<wgt id='4244'>0.82065E+02</wgt>
<wgt id='4245'>0.82719E+02</wgt>
<wgt id='4246'>0.81846E+02</wgt>
<wgt id='4247'>0.81638E+02</wgt>
<wgt id='4248'>0.83012E+02</wgt>
<wgt id='4249'>0.83394E+02</wgt>
<wgt id='4250'>0.81459E+02</wgt>
<wgt id='4251'>0.84033E+02</wgt>
<wgt id='4252'>0.81522E+02</wgt>
<wgt id='4253'>0.83442E+02</wgt>
<wgt id='4254'>0.81308E+02</wgt>
<wgt id='4255'>0.84088E+02</wgt>
<wgt id='4256'>0.81806E+02</wgt>
<wgt id='4257'>0.81103E+02</wgt>
<wgt id='4258'>0.82911E+02</wgt>
<wgt id='4300'>0.83224E+02</wgt>
<wgt id='4301'>0.84262E+02</wgt>
<wgt id='5000'>0.83331E+02</wgt>
<wgt id='5001'>0.83370E+02</wgt>
<wgt id='5002'>0.83281E+02</wgt>
<wgt id='5003'>0.83348E+02</wgt>
<wgt id='5004'>0.83315E+02</wgt>
<wgt id='5005'>0.83336E+02</wgt>
<wgt id='5006'>0.83322E+02</wgt>
<wgt id='5007'>0.83419E+02</wgt>
<wgt id='5008'>0.83259E+02</wgt>
<wgt id='5009'>0.83418E+02</wgt>
<wgt id='5010'>0.83241E+02</wgt>
<wgt id='5011'>0.83586E+02</wgt>
<wgt id='5012'>0.83085E+02</wgt>
<wgt id='5013'>0.83457E+02</wgt>
<wgt id='5014'>0.83241E+02</wgt>
<wgt id='5015'>0.82950E+02</wgt>
<wgt id='5016'>0.82950E+02</wgt>
<wgt id='5017'>0.83633E+02</wgt>
<wgt id='5018'>0.83127E+02</wgt>
<wgt id='5019'>0.83594E+02</wgt>
<wgt id='5020'>0.82969E+02</wgt>
<wgt id='5021'>0.83423E+02</wgt>
<wgt id='5022'>0.83184E+02</wgt>
<wgt id='5023'>0.83289E+02</wgt>
<wgt id='5024'>0.83431E+02</wgt>
<wgt id='5025'>0.83157E+02</wgt>
<wgt id='5026'>0.83523E+02</wgt>
<wgt id='5027'>0.83391E+02</wgt>
<wgt id='5028'>0.83169E+02</wgt>
<wgt id='5029'>0.84366E+02</wgt>
<wgt id='5030'>0.82750E+02</wgt>
<wgt id='5031'>0.82728E+02</wgt>
<wgt id='5032'>0.85183E+02</wgt>
<wgt id='5033'>0.83243E+02</wgt>
<wgt id='5034'>0.83424E+02</wgt>
<wgt id='5035'>0.83343E+02</wgt>
<wgt id='5036'>0.83315E+02</wgt>
<wgt id='5037'>0.83038E+02</wgt>
<wgt id='5038'>0.83496E+02</wgt>
<wgt id='5039'>0.83494E+02</wgt>
<wgt id='5040'>0.82927E+02</wgt>
<wgt id='5041'>0.82935E+02</wgt>
<wgt id='5042'>0.83762E+02</wgt>
<wgt id='5043'>0.83508E+02</wgt>
<wgt id='5044'>0.83204E+02</wgt>
<wgt id='5045'>0.83774E+02</wgt>
<wgt id='5046'>0.82487E+02</wgt>
<wgt id='5047'>0.83443E+02</wgt>
<wgt id='5048'>0.82840E+02</wgt>
<wgt id='5049'>0.83208E+02</wgt>
<wgt id='5050'>0.83614E+02</wgt>
<wgt id='5051'>0.83606E+02</wgt>
<wgt id='5052'>0.83145E+02</wgt>
<wgt id='5053'>0.83638E+02</wgt>
<wgt id='5054'>0.83454E+02</wgt>
<wgt id='5055'>0.83363E+02</wgt>
<wgt id='5056'>0.83409E+02</wgt>
<wgt id='5057'>0.82946E+02</wgt>
<wgt id='5058'>0.83601E+02</wgt>
<wgt id='5059'>0.83143E+02</wgt>
<wgt id='5060'>0.83438E+02</wgt>
<wgt id='5061'>0.83518E+02</wgt>
<wgt id='5062'>0.83638E+02</wgt>
<wgt id='5063'>0.83552E+02</wgt>
<wgt id='5064'>0.83499E+02</wgt>
<wgt id='5100'>0.83331E+02</wgt>
<wgt id='5101'>0.83321E+02</wgt>
<wgt id='6000'>0.82857E+02</wgt>
<wgt id='6001'>0.82430E+02</wgt>
<wgt id='6002'>0.82058E+02</wgt>
<wgt id='6003'>0.82575E+02</wgt>
<wgt id='6004'>0.83334E+02</wgt>
<wgt id='6005'>0.82252E+02</wgt>
<wgt id='6006'>0.82881E+02</wgt>
<wgt id='6007'>0.82164E+02</wgt>
<wgt id='6008'>0.83189E+02</wgt>
<wgt id='6009'>0.82755E+02</wgt>
<wgt id='6010'>0.83245E+02</wgt>
<wgt id='6011'>0.82832E+02</wgt>
<wgt id='6012'>0.83084E+02</wgt>
<wgt id='6013'>0.82394E+02</wgt>
<wgt id='6014'>0.82443E+02</wgt>
<wgt id='6015'>0.82078E+02</wgt>
<wgt id='6016'>0.83351E+02</wgt>
<wgt id='6017'>0.82453E+02</wgt>
<wgt id='6018'>0.82161E+02</wgt>
<wgt id='6019'>0.83047E+02</wgt>
<wgt id='6020'>0.83052E+02</wgt>
<wgt id='6021'>0.82765E+02</wgt>
<wgt id='6022'>0.83227E+02</wgt>
<wgt id='6023'>0.82810E+02</wgt>
<wgt id='6024'>0.82992E+02</wgt>
<wgt id='6025'>0.83401E+02</wgt>
<wgt id='6026'>0.82732E+02</wgt>
<wgt id='6027'>0.82939E+02</wgt>
<wgt id='6028'>0.82307E+02</wgt>
<wgt id='6029'>0.82596E+02</wgt>
<wgt id='6030'>0.82307E+02</wgt>
<wgt id='6031'>0.82559E+02</wgt>
<wgt id='6032'>0.82842E+02</wgt>
<wgt id='6033'>0.82764E+02</wgt>
<wgt id='6034'>0.83298E+02</wgt>
<wgt id='6035'>0.82922E+02</wgt>
<wgt id='6036'>0.83684E+02</wgt>
<wgt id='6037'>0.82834E+02</wgt>
<wgt id='6038'>0.82734E+02</wgt>
<wgt id='6039'>0.83152E+02</wgt>
<wgt id='6040'>0.82883E+02</wgt>
<wgt id='6041'>0.81536E+02</wgt>
<wgt id='6042'>0.83639E+02</wgt>
<wgt id='7000'>0.79973E+02</wgt>
<wgt id='7001'>0.79268E+02</wgt>
<wgt id='7002'>0.79420E+02</wgt>
<wgt id='7003'>0.79336E+02</wgt>
<wgt id='7004'>0.79352E+02</wgt>
<wgt id='7005'>0.79389E+02</wgt>
<wgt id='7006'>0.79299E+02</wgt>
<wgt id='7007'>0.79754E+02</wgt>
<wgt id='7008'>0.78945E+02</wgt>
<wgt id='7009'>0.79007E+02</wgt>
<wgt id='7010'>0.79693E+02</wgt>
<wgt id='7011'>0.79579E+02</wgt>
<wgt id='7012'>0.79117E+02</wgt>
<wgt id='7013'>0.79324E+02</wgt>
<wgt id='7014'>0.79360E+02</wgt>
<wgt id='7015'>0.79525E+02</wgt>
<wgt id='7016'>0.79019E+02</wgt>
<wgt id='7017'>0.79179E+02</wgt>
<wgt id='7018'>0.79519E+02</wgt>
<wgt id='7019'>0.79768E+02</wgt>
<wgt id='7020'>0.78940E+02</wgt>
<wgt id='7021'>0.80605E+02</wgt>
<wgt id='7022'>0.78152E+02</wgt>
<wgt id='7023'>0.78200E+02</wgt>
<wgt id='7024'>0.80500E+02</wgt>
<wgt id='7025'>0.77818E+02</wgt>
<wgt id='7026'>0.80829E+02</wgt>
<wgt id='7027'>0.78656E+02</wgt>
<wgt id='7028'>0.80104E+02</wgt>
<wgt id='8000'>0.80459E+02</wgt>
<wgt id='8001'>0.80453E+02</wgt>
<wgt id='8002'>0.80482E+02</wgt>
<wgt id='8003'>0.80459E+02</wgt>
<wgt id='8004'>0.80457E+02</wgt>
<wgt id='8005'>0.80317E+02</wgt>
<wgt id='8006'>0.80558E+02</wgt>
<wgt id='8007'>0.80626E+02</wgt>
<wgt id='8008'>0.80612E+02</wgt>
<wgt id='8009'>0.80762E+02</wgt>
<wgt id='8010'>0.80369E+02</wgt>
<wgt id='8011'>0.80497E+02</wgt>
<wgt id='8012'>0.80192E+02</wgt>
<wgt id='8013'>0.80303E+02</wgt>
<wgt id='8014'>0.80661E+02</wgt>
<wgt id='8015'>0.80409E+02</wgt>
<wgt id='8016'>0.80585E+02</wgt>
<wgt id='8017'>0.80601E+02</wgt>
<wgt id='8018'>0.80770E+02</wgt>
<wgt id='8019'>0.80250E+02</wgt>
<wgt id='8020'>0.80842E+02</wgt>
<wgt id='8021'>0.80283E+02</wgt>
<wgt id='8022'>0.81152E+02</wgt>
<wgt id='8023'>0.80112E+02</wgt>
<wgt id='8024'>0.79810E+02</wgt>
<wgt id='8025'>0.79932E+02</wgt>
<wgt id='8026'>0.80423E+02</wgt>
<wgt id='8027'>0.80640E+02</wgt>
<wgt id='8028'>0.80466E+02</wgt>
<wgt id='8029'>0.82447E+02</wgt>
<wgt id='3000'>0.81104E+02</wgt>
<wgt id='3001'>0.83028E+02</wgt>
<wgt id='3002'>0.80134E+02</wgt>
<wgt id='3003'>0.81508E+02</wgt>
<wgt id='3004'>0.81685E+02</wgt>
<wgt id='3005'>0.81871E+02</wgt>
<wgt id='3006'>0.81641E+02</wgt>
<wgt id='3007'>0.78847E+02</wgt>
<wgt id='3008'>0.78410E+02</wgt>
<wgt id='3009'>0.80214E+02</wgt>
<wgt id='3010'>0.85993E+02</wgt>
<wgt id='3011'>0.82559E+02</wgt>
<wgt id='3012'>0.79547E+02</wgt>
<wgt id='3013'>0.81276E+02</wgt>
<wgt id='3014'>0.80556E+02</wgt>
<wgt id='3015'>0.80071E+02</wgt>
<wgt id='3016'>0.80586E+02</wgt>
<wgt id='3017'>0.81223E+02</wgt>
<wgt id='3018'>0.79220E+02</wgt>
<wgt id='3019'>0.80037E+02</wgt>
<wgt id='3020'>0.80722E+02</wgt>
<wgt id='3021'>0.80353E+02</wgt>
<wgt id='3022'>0.79515E+02</wgt>
<wgt id='3023'>0.79501E+02</wgt>
<wgt id='3024'>0.80949E+02</wgt>
<wgt id='3025'>0.79124E+02</wgt>
<wgt id='3026'>0.80504E+02</wgt>
<wgt id='3027'>0.83152E+02</wgt>
<wgt id='3028'>0.78396E+02</wgt>
<wgt id='3029'>0.81300E+02</wgt>
<wgt id='3030'>0.80595E+02</wgt>
<wgt id='3031'>0.83653E+02</wgt>
<wgt id='3032'>0.80166E+02</wgt>
<wgt id='3033'>0.79663E+02</wgt>
<wgt id='3034'>0.81396E+02</wgt>
<wgt id='3035'>0.83949E+02</wgt>
<wgt id='3036'>0.81737E+02</wgt>
<wgt id='3037'>0.80834E+02</wgt>
<wgt id='3038'>0.81689E+02</wgt>
<wgt id='3039'>0.81008E+02</wgt>
<wgt id='3040'>0.80266E+02</wgt>
<wgt id='3041'>0.81156E+02</wgt>
<wgt id='3042'>0.80677E+02</wgt>
<wgt id='3043'>0.82173E+02</wgt>
<wgt id='3044'>0.81820E+02</wgt>
<wgt id='3045'>0.80948E+02</wgt>
<wgt id='3046'>0.81125E+02</wgt>
<wgt id='3047'>0.81896E+02</wgt>
<wgt id='3048'>0.82122E+02</wgt>
<wgt id='3049'>0.82173E+02</wgt>
<wgt id='3050'>0.83487E+02</wgt>
<wgt id='3051'>0.80796E+02</wgt>
<wgt id='3052'>0.79934E+02</wgt>
<wgt id='3053'>0.82512E+02</wgt>
<wgt id='3054'>0.79332E+02</wgt>
<wgt id='3055'>0.80799E+02</wgt>
<wgt id='3056'>0.80512E+02</wgt>
<wgt id='3057'>0.80076E+02</wgt>
<wgt id='3058'>0.82740E+02</wgt>
<wgt id='3059'>0.79444E+02</wgt>
<wgt id='3060'>0.80804E+02</wgt>
<wgt id='3061'>0.81250E+02</wgt>
<wgt id='3062'>0.81642E+02</wgt>
<wgt id='3063'>0.81815E+02</wgt>
<wgt id='3064'>0.82286E+02</wgt>
<wgt id='3065'>0.79391E+02</wgt>
<wgt id='3066'>0.81630E+02</wgt>
<wgt id='3067'>0.80100E+02</wgt>
<wgt id='3068'>0.80276E+02</wgt>
<wgt id='3069'>0.80537E+02</wgt>
<wgt id='3070'>0.82217E+02</wgt>
<wgt id='3071'>0.81503E+02</wgt>
<wgt id='3072'>0.82250E+02</wgt>
<wgt id='3073'>0.80450E+02</wgt>
<wgt id='3074'>0.80221E+02</wgt>
<wgt id='3075'>0.81256E+02</wgt>
<wgt id='3076'>0.83558E+02</wgt>
<wgt id='3077'>0.81909E+02</wgt>
<wgt id='3078'>0.80512E+02</wgt>
<wgt id='3079'>0.81492E+02</wgt>
<wgt id='3080'>0.84180E+02</wgt>
<wgt id='3081'>0.81778E+02</wgt>
<wgt id='3082'>0.80586E+02</wgt>
<wgt id='3083'>0.81259E+02</wgt>
<wgt id='3084'>0.79739E+02</wgt>
<wgt id='3085'>0.80988E+02</wgt>
<wgt id='3086'>0.82646E+02</wgt>
<wgt id='3087'>0.80048E+02</wgt>
<wgt id='3088'>0.81246E+02</wgt>
<wgt id='3089'>0.82310E+02</wgt>
<wgt id='3090'>0.79808E+02</wgt>
<wgt id='3091'>0.79619E+02</wgt>
<wgt id='3092'>0.82221E+02</wgt>
<wgt id='3093'>0.81143E+02</wgt>
<wgt id='3094'>0.81508E+02</wgt>
<wgt id='3095'>0.79580E+02</wgt>
<wgt id='3096'>0.80317E+02</wgt>
<wgt id='3097'>0.85263E+02</wgt>
<wgt id='3098'>0.80716E+02</wgt>
<wgt id='3099'>0.79172E+02</wgt>
<wgt id='3100'>0.80078E+02</wgt>
<wgt id='3200'>0.79786E+02</wgt>
<wgt id='3201'>0.79232E+02</wgt>
<wgt id='3202'>0.78286E+02</wgt>
<wgt id='3203'>0.80361E+02</wgt>
<wgt id='3204'>0.79849E+02</wgt>
<wgt id='3205'>0.80086E+02</wgt>
<wgt id='3206'>0.80656E+02</wgt>
<wgt id='3207'>0.80172E+02</wgt>
<wgt id='3208'>0.79841E+02</wgt>
<wgt id='3209'>0.79821E+02</wgt>
<wgt id='3210'>0.79819E+02</wgt>
<wgt id='3211'>0.79584E+02</wgt>
<wgt id='3212'>0.80006E+02</wgt>
<wgt id='3213'>0.80356E+02</wgt>
<wgt id='3214'>0.79318E+02</wgt>
<wgt id='3215'>0.79489E+02</wgt>
<wgt id='3216'>0.80487E+02</wgt>
<wgt id='3217'>0.80092E+02</wgt>
<wgt id='3218'>0.80914E+02</wgt>
<wgt id='3219'>0.79351E+02</wgt>
<wgt id='3220'>0.79011E+02</wgt>
<wgt id='3221'>0.79555E+02</wgt>
<wgt id='3222'>0.80351E+02</wgt>
<wgt id='3223'>0.80116E+02</wgt>
<wgt id='3224'>0.79414E+02</wgt>
<wgt id='3225'>0.80427E+02</wgt>
<wgt id='3226'>0.79148E+02</wgt>
<wgt id='3227'>0.79131E+02</wgt>
<wgt id='3228'>0.79549E+02</wgt>
<wgt id='3229'>0.80837E+02</wgt>
<wgt id='3230'>0.80088E+02</wgt>
<wgt id='3231'>0.79931E+02</wgt>
<wgt id='3232'>0.80107E+02</wgt>
<wgt id='3233'>0.79590E+02</wgt>
<wgt id='3234'>0.78368E+02</wgt>
<wgt id='3235'>0.79745E+02</wgt>
<wgt id='3236'>0.80635E+02</wgt>
<wgt id='3237'>0.80055E+02</wgt>
<wgt id='3238'>0.79931E+02</wgt>
<wgt id='3239'>0.78904E+02</wgt>
<wgt id='3240'>0.78270E+02</wgt>
<wgt id='3241'>0.80447E+02</wgt>
<wgt id='3242'>0.80316E+02</wgt>
<wgt id='3243'>0.80772E+02</wgt>
<wgt id='3244'>0.80460E+02</wgt>
<wgt id='3245'>0.80688E+02</wgt>
<wgt id='3246'>0.78411E+02</wgt>
<wgt id='3247'>0.78276E+02</wgt>
<wgt id='3248'>0.79491E+02</wgt>
<wgt id='3249'>0.79074E+02</wgt>
<wgt id='3250'>0.79273E+02</wgt>
<wgt id='3251'>0.79286E+02</wgt>
<wgt id='3252'>0.80980E+02</wgt>
<wgt id='3253'>0.80759E+02</wgt>
<wgt id='3254'>0.79685E+02</wgt>
<wgt id='3255'>0.78452E+02</wgt>
<wgt id='3256'>0.79488E+02</wgt>
<wgt id='3257'>0.79401E+02</wgt>
<wgt id='3258'>0.78787E+02</wgt>
<wgt id='3259'>0.78568E+02</wgt>
<wgt id='3260'>0.79970E+02</wgt>
<wgt id='3261'>0.78825E+02</wgt>
<wgt id='3262'>0.81106E+02</wgt>
<wgt id='3263'>0.79869E+02</wgt>
<wgt id='3264'>0.80605E+02</wgt>
<wgt id='3265'>0.80739E+02</wgt>
<wgt id='3266'>0.80055E+02</wgt>
<wgt id='3267'>0.79986E+02</wgt>
<wgt id='3268'>0.78382E+02</wgt>
<wgt id='3269'>0.79228E+02</wgt>
<wgt id='3270'>0.81466E+02</wgt>
<wgt id='3271'>0.79418E+02</wgt>
<wgt id='3272'>0.79811E+02</wgt>
<wgt id='3273'>0.79883E+02</wgt>
<wgt id='3274'>0.79708E+02</wgt>
<wgt id='3275'>0.80789E+02</wgt>
<wgt id='3276'>0.78891E+02</wgt>
<wgt id='3277'>0.79886E+02</wgt>
<wgt id='3278'>0.80790E+02</wgt>
<wgt id='3279'>0.80024E+02</wgt>
<wgt id='3280'>0.79501E+02</wgt>
<wgt id='3281'>0.80651E+02</wgt>
<wgt id='3282'>0.79689E+02</wgt>
<wgt id='3283'>0.80326E+02</wgt>
<wgt id='3284'>0.78679E+02</wgt>
<wgt id='3285'>0.80080E+02</wgt>
<wgt id='3286'>0.78728E+02</wgt>
<wgt id='3287'>0.81799E+02</wgt>
<wgt id='3288'>0.78646E+02</wgt>
<wgt id='3289'>0.80566E+02</wgt>
<wgt id='3290'>0.78632E+02</wgt>
<wgt id='3291'>0.79513E+02</wgt>
<wgt id='3292'>0.79669E+02</wgt>
<wgt id='3293'>0.79679E+02</wgt>
<wgt id='3294'>0.80243E+02</wgt>
<wgt id='3295'>0.79427E+02</wgt>
<wgt id='3296'>0.80260E+02</wgt>
<wgt id='3297'>0.80208E+02</wgt>
<wgt id='3298'>0.78418E+02</wgt>
<wgt id='3299'>0.80309E+02</wgt>
<wgt id='3300'>0.80564E+02</wgt>
<wgt id='3301'>0.78417E+02</wgt>
<wgt id='3302'>0.80526E+02</wgt>
<wgt id='3400'>0.78967E+02</wgt>
<wgt id='3401'>0.79777E+02</wgt>
<wgt id='3402'>0.77191E+02</wgt>
<wgt id='3403'>0.79734E+02</wgt>
<wgt id='3404'>0.80166E+02</wgt>
<wgt id='3405'>0.79694E+02</wgt>
<wgt id='3406'>0.79952E+02</wgt>
<wgt id='3407'>0.78748E+02</wgt>
<wgt id='3408'>0.79298E+02</wgt>
<wgt id='3409'>0.78658E+02</wgt>
<wgt id='3410'>0.79650E+02</wgt>
<wgt id='3411'>0.80164E+02</wgt>
<wgt id='3412'>0.79496E+02</wgt>
<wgt id='3413'>0.78655E+02</wgt>
<wgt id='3414'>0.78820E+02</wgt>
<wgt id='3415'>0.79114E+02</wgt>
<wgt id='3416'>0.78689E+02</wgt>
<wgt id='3417'>0.79644E+02</wgt>
<wgt id='3418'>0.78438E+02</wgt>
<wgt id='3419'>0.78607E+02</wgt>
<wgt id='3420'>0.78498E+02</wgt>
<wgt id='3421'>0.78257E+02</wgt>
<wgt id='3422'>0.78273E+02</wgt>
<wgt id='3423'>0.80899E+02</wgt>
<wgt id='3424'>0.79340E+02</wgt>
<wgt id='3425'>0.78197E+02</wgt>
<wgt id='3426'>0.78331E+02</wgt>
<wgt id='3427'>0.77981E+02</wgt>
<wgt id='3428'>0.78806E+02</wgt>
<wgt id='3429'>0.77878E+02</wgt>
<wgt id='3430'>0.78698E+02</wgt>
<wgt id='3431'>0.79521E+02</wgt>
<wgt id='3432'>0.79978E+02</wgt>
<wgt id='3433'>0.78985E+02</wgt>
<wgt id='3434'>0.80596E+02</wgt>
<wgt id='3435'>0.80098E+02</wgt>
<wgt id='3436'>0.78992E+02</wgt>
<wgt id='3437'>0.80469E+02</wgt>
<wgt id='3438'>0.78379E+02</wgt>
<wgt id='3439'>0.77216E+02</wgt>
<wgt id='3440'>0.79317E+02</wgt>
<wgt id='3441'>0.79433E+02</wgt>
<wgt id='3442'>0.78954E+02</wgt>
<wgt id='3443'>0.79929E+02</wgt>
<wgt id='3444'>0.78267E+02</wgt>
<wgt id='3445'>0.78195E+02</wgt>
<wgt id='3446'>0.79264E+02</wgt>
<wgt id='3447'>0.78726E+02</wgt>
<wgt id='3448'>0.80120E+02</wgt>
<wgt id='3449'>0.79034E+02</wgt>
<wgt id='3450'>0.78231E+02</wgt>
<wgt id='3451'>0.79594E+02</wgt>
<wgt id='3452'>0.78332E+02</wgt>
<wgt id='3453'>0.77486E+02</wgt>
<wgt id='3454'>0.78959E+02</wgt>
<wgt id='3455'>0.79535E+02</wgt>
<wgt id='3456'>0.79112E+02</wgt>
<wgt id='3457'>0.78709E+02</wgt>
<wgt id='3458'>0.78091E+02</wgt>
<wgt id='3459'>0.79262E+02</wgt>
<wgt id='3460'>0.78784E+02</wgt>
<wgt id='3461'>0.78279E+02</wgt>
<wgt id='3462'>0.79066E+02</wgt>
<wgt id='3463'>0.78043E+02</wgt>
<wgt id='3464'>0.78901E+02</wgt>
<wgt id='3465'>0.79047E+02</wgt>
<wgt id='3466'>0.79840E+02</wgt>
<wgt id='3467'>0.78621E+02</wgt>
<wgt id='3468'>0.78289E+02</wgt>
<wgt id='3469'>0.77464E+02</wgt>
<wgt id='3470'>0.78495E+02</wgt>
<wgt id='3471'>0.78258E+02</wgt>
<wgt id='3472'>0.77304E+02</wgt>
<wgt id='3473'>0.80793E+02</wgt>
<wgt id='3474'>0.78303E+02</wgt>
<wgt id='3475'>0.79292E+02</wgt>
<wgt id='3476'>0.79022E+02</wgt>
<wgt id='3477'>0.77872E+02</wgt>
<wgt id='3478'>0.79768E+02</wgt>
<wgt id='3479'>0.78480E+02</wgt>
<wgt id='3480'>0.79478E+02</wgt>
<wgt id='3481'>0.80154E+02</wgt>
<wgt id='3482'>0.79214E+02</wgt>
<wgt id='3483'>0.78989E+02</wgt>
<wgt id='3484'>0.78248E+02</wgt>
<wgt id='3485'>0.78135E+02</wgt>
<wgt id='3486'>0.77061E+02</wgt>
<wgt id='3487'>0.77845E+02</wgt>
<wgt id='3488'>0.78834E+02</wgt>
<wgt id='3489'>0.77956E+02</wgt>
<wgt id='3490'>0.79822E+02</wgt>
<wgt id='3491'>0.80840E+02</wgt>
<wgt id='3492'>0.78577E+02</wgt>
<wgt id='3493'>0.80710E+02</wgt>
<wgt id='3494'>0.77433E+02</wgt>
<wgt id='3495'>0.80178E+02</wgt>
<wgt id='3496'>0.77815E+02</wgt>
<wgt id='3497'>0.78740E+02</wgt>
<wgt id='3498'>0.80201E+02</wgt>
<wgt id='3499'>0.79145E+02</wgt>
<wgt id='3500'>0.80837E+02</wgt>
</rwgt>
</event>
<event>
     13 322200  8.11039E+01  8.21296E+00 -1.00000E+00  2.01692E-01
      21    -1     0     0   504   505  0.000000000E+00  0.000000000E+00  4.188892804E+02  4.188892804E+02  0.000000000E+00  0.00000E+00  9.000E+00
      21    -1     0     0   503   504  0.000000000E+00  0.000000000E+00 -6.809653222E+02  6.809653222E+02  0.000000000E+00  0.00000E+00  9.000E+00
       6     2     1     2   502     0 -1.037934691E+02 -2.864794189E+01 -5.473637772E+02  5.839272228E+02  1.725401640E+02  0.00000E+00  9.000E+00
      -6     2     1     2     0   505  1.045689142E+02  2.047166679E+01  3.744512087E+02  4.263864518E+02  1.738906311E+02  0.00000E+00  9.000E+00
      21     1     1     2   503   502 -7.754450957E-01  8.176275102E+00 -8.916347339E+01  8.954092794E+01  0.000000000E+00  0.00000E+00  9.000E+00
      24     2     3     3     0     0 -1.498468550E+01  1.231275663E+00 -4.068795329E+02  4.149858301E+02  8.022610582E+01  0.00000E+00  9.000E+00
       5     1     3     3   502     0 -8.880878360E+01 -2.987921756E+01 -1.404842443E+02  1.689413928E+02  5.060000000E+00  0.00000E+00 -1.000E+00
     -24     2     4     4     0     0  7.048455929E+01 -4.097894863E+01  1.235394617E+02  1.657713529E+02  7.463776193E+01  0.00000E+00  9.000E+00
      -5     1     4     4     0   505  3.408435490E+01  6.145061542E+01  2.509117470E+02  2.606150989E+02  5.060000000E+00  0.00000E+00  1.000E+00
     -11     1     6     6     0     0 -2.868596935E+00 -3.799608331E+01 -2.468565664E+02  2.497800944E+02  5.100000000E-04  0.00000E+00  1.000E+00
      12     1     6     6     0     0 -1.211608856E+01  3.922735897E+01 -1.600229664E+02  1.652057356E+02  0.000000000E+00  0.00000E+00 -1.000E+00
      13     1     8     8     0     0  7.580276740E+01 -7.067522133E+00  8.800074886E+01  1.163621605E+02  1.057000000E-01  0.00000E+00 -1.000E+00
     -14     1     8     8     0     0 -5.318208104E+00 -3.391142650E+01  3.553871285E+01  4.940919242E+01  0.000000000E+00  0.00000E+00  1.000E+00
#rwgt            1           1   1824.3167238970013               10       33864           0
<rwgt>
<wgt id='1001'>0.81104E+02</wgt>
<wgt id='1002'>0.79302E+02</wgt>
<wgt id='1003'>0.84555E+02</wgt>
<wgt id='1004'>0.78915E+02</wgt>
<wgt id='1005'>0.75754E+02</wgt>
<wgt id='1006'>0.83686E+02</wgt>
<wgt id='1007'>0.79515E+02</wgt>
<wgt id='1008'>0.80198E+02</wgt>
<wgt id='1009'>0.80439E+02</wgt>
<wgt id='2000'>0.81104E+02</wgt>
<wgt id='2001'>0.80926E+02</wgt>
<wgt id='2002'>0.80893E+02</wgt>
<wgt id='2003'>0.81376E+02</wgt>
<wgt id='2004'>0.81153E+02</wgt>
<wgt id='2005'>0.81017E+02</wgt>
<wgt id='2006'>0.81330E+02</wgt>
<wgt id='2007'>0.80840E+02</wgt>
<wgt id='2008'>0.80928E+02</wgt>
<wgt id='2009'>0.81169E+02</wgt>
<wgt id='2010'>0.81161E+02</wgt>
<wgt id='2011'>0.81441E+02</wgt>
<wgt id='2012'>0.80883E+02</wgt>
<wgt id='2013'>0.81404E+02</wgt>
<wgt id='2014'>0.81509E+02</wgt>
<wgt id='2015'>0.81303E+02</wgt>
<wgt id='2016'>0.81458E+02</wgt>
<wgt id='2017'>0.81586E+02</wgt>
<wgt id='2018'>0.80856E+02</wgt>
<wgt id='2019'>0.80418E+02</wgt>
<wgt id='2020'>0.81357E+02</wgt>
<wgt id='2021'>0.80663E+02</wgt>
<wgt id='2022'>0.81079E+02</wgt>
<wgt id='2023'>0.81525E+02</wgt>
<wgt id='2024'>0.80564E+02</wgt>
<wgt id='2025'>0.81180E+02</wgt>
<wgt id='2026'>0.81064E+02</wgt>
<wgt id='2027'>0.80653E+02</wgt>
<wgt id='2028'>0.81431E+02</wgt>
<wgt id='2029'>0.80603E+02</wgt>
<wgt id='2030'>0.80944E+02</wgt>
<wgt id='2031'>0.80832E+02</wgt>
<wgt id='2032'>0.81306E+02</wgt>
<wgt id='2033'>0.81006E+02</wgt>
<wgt id='2034'>0.80885E+02</wgt>
<wgt id='2035'>0.81019E+02</wgt>
<wgt id='2036'>0.81368E+02</wgt>
<wgt id='2037'>0.81053E+02</wgt>
<wgt id='2038'>0.81120E+02</wgt>
<wgt id='2039'>0.81073E+02</wgt>
<wgt id='2040'>0.81037E+02</wgt>
<wgt id='2041'>0.81109E+02</wgt>
<wgt id='2042'>0.81120E+02</wgt>
<wgt id='2043'>0.81010E+02</wgt>
<wgt id='2044'>0.81137E+02</wgt>
<wgt id='2045'>0.80965E+02</wgt>
<wgt id='2046'>0.80962E+02</wgt>
<wgt id='2047'>0.81085E+02</wgt>
<wgt id='2048'>0.81133E+02</wgt>
<wgt id='2049'>0.81024E+02</wgt>
<wgt id='2050'>0.81057E+02</wgt>
<wgt id='2051'>0.81129E+02</wgt>
<wgt id='2052'>0.81175E+02</wgt>
<wgt id='2053'>0.81123E+02</wgt>
<wgt id='2054'>0.81129E+02</wgt>
<wgt id='2055'>0.81080E+02</wgt>
<wgt id='2056'>0.81077E+02</wgt>
<wgt id='2057'>0.81146E+02</wgt>
<wgt id='2058'>0.81155E+02</wgt>
<wgt id='2059'>0.81149E+02</wgt>
<wgt id='2060'>0.81109E+02</wgt>
<wgt id='2061'>0.81086E+02</wgt>
<wgt id='2062'>0.81155E+02</wgt>
<wgt id='2063'>0.81202E+02</wgt>
<wgt id='2064'>0.81092E+02</wgt>
<wgt id='2065'>0.81213E+02</wgt>
<wgt id='2066'>0.81077E+02</wgt>
<wgt id='2067'>0.81123E+02</wgt>
<wgt id='2068'>0.81153E+02</wgt>
<wgt id='2069'>0.81118E+02</wgt>
<wgt id='2070'>0.81130E+02</wgt>
<wgt id='2071'>0.81033E+02</wgt>
<wgt id='2072'>0.81064E+02</wgt>
<wgt id='2073'>0.81116E+02</wgt>
<wgt id='2074'>0.81057E+02</wgt>
<wgt id='2075'>0.81091E+02</wgt>
<wgt id='2076'>0.81116E+02</wgt>
<wgt id='2077'>0.81180E+02</wgt>
<wgt id='2078'>0.81117E+02</wgt>
<wgt id='2079'>0.81085E+02</wgt>
<wgt id='2080'>0.81095E+02</wgt>
<wgt id='2081'>0.81070E+02</wgt>
<wgt id='2082'>0.81063E+02</wgt>
<wgt id='2083'>0.81145E+02</wgt>
<wgt id='2084'>0.81094E+02</wgt>
<wgt id='2085'>0.81148E+02</wgt>
<wgt id='2086'>0.81036E+02</wgt>
<wgt id='2087'>0.81113E+02</wgt>
<wgt id='2088'>0.81074E+02</wgt>
<wgt id='2089'>0.81065E+02</wgt>
<wgt id='2090'>0.81130E+02</wgt>
<wgt id='2091'>0.81128E+02</wgt>
<wgt id='2092'>0.81139E+02</wgt>
<wgt id='2093'>0.81037E+02</wgt>
<wgt id='2094'>0.81123E+02</wgt>
<wgt id='2095'>0.81115E+02</wgt>
<wgt id='2096'>0.81072E+02</wgt>
<wgt id='2097'>0.81126E+02</wgt>
<wgt id='2098'>0.81118E+02</wgt>
<wgt id='2099'>0.81111E+02</wgt>
<wgt id='2100'>0.81104E+02</wgt>
<wgt id='2101'>0.79263E+02</wgt>
<wgt id='2102'>0.83384E+02</wgt>
<wgt id='2200'>0.81165E+02</wgt>
<wgt id='2201'>0.71548E+02</wgt>
<wgt id='2202'>0.73796E+02</wgt>
<wgt id='2203'>0.75338E+02</wgt>
<wgt id='2204'>0.76931E+02</wgt>
<wgt id='2205'>0.80168E+02</wgt>
<wgt id='2206'>0.82078E+02</wgt>
<wgt id='2207'>0.85321E+02</wgt>
<wgt id='2208'>0.87111E+02</wgt>
<wgt id='2300'>0.84285E+02</wgt>
<wgt id='2301'>0.84312E+02</wgt>
<wgt id='2302'>0.84189E+02</wgt>
<wgt id='2303'>0.84063E+02</wgt>
<wgt id='2304'>0.84432E+02</wgt>
<wgt id='2305'>0.84070E+02</wgt>
<wgt id='2306'>0.84168E+02</wgt>
<wgt id='2307'>0.84269E+02</wgt>
<wgt id='2308'>0.84470E+02</wgt>
<wgt id='2309'>0.84497E+02</wgt>
<wgt id='2310'>0.84360E+02</wgt>
<wgt id='2311'>0.84019E+02</wgt>
<wgt id='2312'>0.83928E+02</wgt>
<wgt id='2313'>0.84795E+02</wgt>
<wgt id='2314'>0.83978E+02</wgt>
<wgt id='2315'>0.84046E+02</wgt>
<wgt id='2316'>0.84238E+02</wgt>
<wgt id='2317'>0.83949E+02</wgt>
<wgt id='2318'>0.84214E+02</wgt>
<wgt id='2319'>0.84787E+02</wgt>
<wgt id='2320'>0.84607E+02</wgt>
<wgt id='2321'>0.84723E+02</wgt>
<wgt id='2322'>0.84320E+02</wgt>
<wgt id='2323'>0.84440E+02</wgt>
<wgt id='2324'>0.84367E+02</wgt>
<wgt id='2325'>0.84458E+02</wgt>
<wgt id='2326'>0.84072E+02</wgt>
<wgt id='2327'>0.84335E+02</wgt>
<wgt id='2328'>0.84248E+02</wgt>
<wgt id='2329'>0.83742E+02</wgt>
<wgt id='2330'>0.85099E+02</wgt>
<wgt id='2331'>0.84743E+02</wgt>
<wgt id='2332'>0.84251E+02</wgt>
<wgt id='2333'>0.84452E+02</wgt>
<wgt id='2334'>0.84257E+02</wgt>
<wgt id='2335'>0.84914E+02</wgt>
<wgt id='2336'>0.84546E+02</wgt>
<wgt id='2337'>0.84118E+02</wgt>
<wgt id='2338'>0.84449E+02</wgt>
<wgt id='2339'>0.84588E+02</wgt>
<wgt id='2340'>0.84123E+02</wgt>
<wgt id='2341'>0.84300E+02</wgt>
<wgt id='2342'>0.83978E+02</wgt>
<wgt id='2343'>0.83887E+02</wgt>
<wgt id='2344'>0.84464E+02</wgt>
<wgt id='2345'>0.84541E+02</wgt>
<wgt id='2346'>0.84210E+02</wgt>
<wgt id='2347'>0.84168E+02</wgt>
<wgt id='2348'>0.84477E+02</wgt>
<wgt id='2349'>0.84181E+02</wgt>
<wgt id='2350'>0.84536E+02</wgt>
<wgt id='2351'>0.84242E+02</wgt>
<wgt id='2352'>0.84280E+02</wgt>
<wgt id='2353'>0.84312E+02</wgt>
<wgt id='2354'>0.84298E+02</wgt>
<wgt id='2355'>0.84054E+02</wgt>
<wgt id='2356'>0.84253E+02</wgt>
<wgt id='2357'>0.84258E+02</wgt>
<wgt id='2358'>0.84198E+02</wgt>
<wgt id='2359'>0.84316E+02</wgt>
<wgt id='2360'>0.84388E+02</wgt>
<wgt id='2361'>0.84315E+02</wgt>
<wgt id='2362'>0.84366E+02</wgt>
<wgt id='2363'>0.84213E+02</wgt>
<wgt id='2364'>0.84339E+02</wgt>
<wgt id='2365'>0.84247E+02</wgt>
<wgt id='2366'>0.84401E+02</wgt>
<wgt id='2367'>0.84237E+02</wgt>
<wgt id='2368'>0.84305E+02</wgt>
<wgt id='2369'>0.84237E+02</wgt>
<wgt id='2370'>0.84293E+02</wgt>
<wgt id='2371'>0.84246E+02</wgt>
<wgt id='2372'>0.84327E+02</wgt>
<wgt id='2373'>0.84290E+02</wgt>
<wgt id='2374'>0.84374E+02</wgt>
<wgt id='2375'>0.84360E+02</wgt>
<wgt id='2376'>0.84391E+02</wgt>
<wgt id='2377'>0.84314E+02</wgt>
<wgt id='2378'>0.84328E+02</wgt>
<wgt id='2379'>0.84167E+02</wgt>
<wgt id='2380'>0.84282E+02</wgt>
<wgt id='2381'>0.84238E+02</wgt>
<wgt id='2382'>0.84182E+02</wgt>
<wgt id='2383'>0.84321E+02</wgt>
<wgt id='2384'>0.84221E+02</wgt>
<wgt id='2385'>0.84365E+02</wgt>
<wgt id='2386'>0.84233E+02</wgt>
<wgt id='2387'>0.84183E+02</wgt>
<wgt id='2388'>0.84256E+02</wgt>
<wgt id='2389'>0.84275E+02</wgt>
<wgt id='2390'>0.84332E+02</wgt>
<wgt id='2391'>0.84259E+02</wgt>
<wgt id='2392'>0.84284E+02</wgt>
<wgt id='2393'>0.84284E+02</wgt>
<wgt id='2394'>0.84281E+02</wgt>
<wgt id='2395'>0.84333E+02</wgt>
<wgt id='2396'>0.84272E+02</wgt>
<wgt id='2397'>0.84257E+02</wgt>
<wgt id='2398'>0.84246E+02</wgt>
<wgt id='2399'>0.84308E+02</wgt>
<wgt id='2400'>0.84279E+02</wgt>
<wgt id='2401'>0.81941E+02</wgt>
<wgt id='2402'>0.86134E+02</wgt>
<wgt id='2500'>0.82248E+02</wgt>
<wgt id='2501'>0.88212E+02</wgt>
<wgt id='2600'>0.77703E+02</wgt>
<wgt id='2601'>0.77727E+02</wgt>
<wgt id='2602'>0.77515E+02</wgt>
<wgt id='2603'>0.77683E+02</wgt>
<wgt id='2604'>0.77492E+02</wgt>
<wgt id='2605'>0.77607E+02</wgt>
<wgt id='2606'>0.77787E+02</wgt>
<wgt id='2607'>0.77556E+02</wgt>
<wgt id='2608'>0.77806E+02</wgt>
<wgt id='2609'>0.77514E+02</wgt>
<wgt id='2610'>0.77621E+02</wgt>
<wgt id='2611'>0.77625E+02</wgt>
<wgt id='2612'>0.77839E+02</wgt>
<wgt id='2613'>0.77676E+02</wgt>
<wgt id='2614'>0.77627E+02</wgt>
<wgt id='2615'>0.77352E+02</wgt>
<wgt id='2616'>0.77675E+02</wgt>
<wgt id='2617'>0.77404E+02</wgt>
<wgt id='2618'>0.77424E+02</wgt>
<wgt id='2619'>0.77810E+02</wgt>
<wgt id='2620'>0.77703E+02</wgt>
<wgt id='2621'>0.77743E+02</wgt>
<wgt id='2622'>0.78125E+02</wgt>
<wgt id='2623'>0.77699E+02</wgt>
<wgt id='2624'>0.77721E+02</wgt>
<wgt id='2625'>0.77580E+02</wgt>
<wgt id='2626'>0.77651E+02</wgt>
<wgt id='2627'>0.77666E+02</wgt>
<wgt id='2628'>0.77761E+02</wgt>
<wgt id='2629'>0.77682E+02</wgt>
<wgt id='2630'>0.77689E+02</wgt>
<wgt id='2631'>0.77599E+02</wgt>
<wgt id='2632'>0.77787E+02</wgt>
<wgt id='2633'>0.77677E+02</wgt>
<wgt id='2634'>0.77696E+02</wgt>
<wgt id='2635'>0.77787E+02</wgt>
<wgt id='2636'>0.77619E+02</wgt>
<wgt id='2637'>0.77745E+02</wgt>
<wgt id='2638'>0.77852E+02</wgt>
<wgt id='2639'>0.77667E+02</wgt>
<wgt id='2640'>0.77750E+02</wgt>
<wgt id='2641'>0.77894E+02</wgt>
<wgt id='2642'>0.77757E+02</wgt>
<wgt id='2643'>0.77767E+02</wgt>
<wgt id='2644'>0.77670E+02</wgt>
<wgt id='2645'>0.77763E+02</wgt>
<wgt id='2646'>0.77847E+02</wgt>
<wgt id='2647'>0.77685E+02</wgt>
<wgt id='2648'>0.77630E+02</wgt>
<wgt id='2649'>0.77635E+02</wgt>
<wgt id='2650'>0.77658E+02</wgt>
<wgt id='2651'>0.76370E+02</wgt>
<wgt id='2652'>0.78976E+02</wgt>
<wgt id='2700'>0.75133E+02</wgt>
<wgt id='2701'>0.76370E+02</wgt>
<wgt id='2702'>0.77078E+02</wgt>
<wgt id='2703'>0.78233E+02</wgt>
<wgt id='2704'>0.78976E+02</wgt>
<wgt id='2705'>0.80112E+02</wgt>
<wgt id='2800'>0.78772E+02</wgt>
<wgt id='4000'>0.82395E+02</wgt>
<wgt id='4001'>0.82661E+02</wgt>
<wgt id='4002'>0.82740E+02</wgt>
<wgt id='4003'>0.81553E+02</wgt>
<wgt id='4004'>0.83822E+02</wgt>
<wgt id='4005'>0.82083E+02</wgt>
<wgt id='4006'>0.82784E+02</wgt>
<wgt id='4007'>0.82820E+02</wgt>
<wgt id='4008'>0.82070E+02</wgt>
<wgt id='4009'>0.83083E+02</wgt>
<wgt id='4010'>0.81668E+02</wgt>
<wgt id='4011'>0.82155E+02</wgt>
<wgt id='4012'>0.82407E+02</wgt>
<wgt id='4013'>0.83009E+02</wgt>
<wgt id='4014'>0.82088E+02</wgt>
<wgt id='4015'>0.81470E+02</wgt>
<wgt id='4016'>0.83975E+02</wgt>
<wgt id='4017'>0.82402E+02</wgt>
<wgt id='4018'>0.82445E+02</wgt>
<wgt id='4019'>0.82768E+02</wgt>
<wgt id='4020'>0.82202E+02</wgt>
<wgt id='4021'>0.82778E+02</wgt>
<wgt id='4022'>0.81760E+02</wgt>
<wgt id='4023'>0.83578E+02</wgt>
<wgt id='4024'>0.81641E+02</wgt>
<wgt id='4025'>0.82592E+02</wgt>
<wgt id='4026'>0.82012E+02</wgt>
<wgt id='4027'>0.83340E+02</wgt>
<wgt id='4028'>0.81850E+02</wgt>
<wgt id='4029'>0.83310E+02</wgt>
<wgt id='4030'>0.81432E+02</wgt>
<wgt id='4031'>0.81403E+02</wgt>
<wgt id='4032'>0.84886E+02</wgt>
<wgt id='4033'>0.83762E+02</wgt>
<wgt id='4034'>0.80786E+02</wgt>
<wgt id='4035'>0.83810E+02</wgt>
<wgt id='4036'>0.81407E+02</wgt>
<wgt id='4037'>0.84312E+02</wgt>
<wgt id='4038'>0.81085E+02</wgt>
<wgt id='4039'>0.84510E+02</wgt>
<wgt id='4040'>0.80435E+02</wgt>
<wgt id='4041'>0.82581E+02</wgt>
<wgt id='4042'>0.82122E+02</wgt>
<wgt id='4043'>0.81641E+02</wgt>
<wgt id='4044'>0.82255E+02</wgt>
<wgt id='4045'>0.82685E+02</wgt>
<wgt id='4046'>0.82389E+02</wgt>
<wgt id='4047'>0.82742E+02</wgt>
<wgt id='4048'>0.82545E+02</wgt>
<wgt id='4049'>0.82741E+02</wgt>
<wgt id='4050'>0.82283E+02</wgt>
<wgt id='4051'>0.83098E+02</wgt>
<wgt id='4052'>0.81961E+02</wgt>
<wgt id='4053'>0.82753E+02</wgt>
<wgt id='4054'>0.81343E+02</wgt>
<wgt id='4055'>0.82951E+02</wgt>
<wgt id='4056'>0.81953E+02</wgt>
<wgt id='4057'>0.81530E+02</wgt>
<wgt id='4058'>0.82912E+02</wgt>
<wgt id='4100'>0.81804E+02</wgt>
<wgt id='4101'>0.82083E+02</wgt>
<wgt id='4102'>0.82706E+02</wgt>
<wgt id='4103'>0.82996E+02</wgt>
<wgt id='4200'>0.79290E+02</wgt>
<wgt id='4201'>0.79483E+02</wgt>
<wgt id='4202'>0.79596E+02</wgt>
<wgt id='4203'>0.78417E+02</wgt>
<wgt id='4204'>0.79717E+02</wgt>
<wgt id='4205'>0.79138E+02</wgt>
<wgt id='4206'>0.79751E+02</wgt>
<wgt id='4207'>0.79729E+02</wgt>
<wgt id='4208'>0.79648E+02</wgt>
<wgt id='4209'>0.79750E+02</wgt>
<wgt id='4210'>0.79258E+02</wgt>
<wgt id='4211'>0.80411E+02</wgt>
<wgt id='4212'>0.78387E+02</wgt>
<wgt id='4213'>0.79501E+02</wgt>
<wgt id='4214'>0.79010E+02</wgt>
<wgt id='4215'>0.79105E+02</wgt>
<wgt id='4216'>0.79315E+02</wgt>
<wgt id='4217'>0.78768E+02</wgt>
<wgt id='4218'>0.79504E+02</wgt>
<wgt id='4219'>0.78516E+02</wgt>
<wgt id='4220'>0.80161E+02</wgt>
<wgt id='4221'>0.78457E+02</wgt>
<wgt id='4222'>0.80177E+02</wgt>
<wgt id='4223'>0.79365E+02</wgt>
<wgt id='4224'>0.78461E+02</wgt>
<wgt id='4225'>0.78473E+02</wgt>
<wgt id='4226'>0.80509E+02</wgt>
<wgt id='4227'>0.80432E+02</wgt>
<wgt id='4228'>0.78392E+02</wgt>
<wgt id='4229'>0.77893E+02</wgt>
<wgt id='4230'>0.80676E+02</wgt>
<wgt id='4231'>0.80011E+02</wgt>
<wgt id='4232'>0.78278E+02</wgt>
<wgt id='4233'>0.80032E+02</wgt>
<wgt id='4234'>0.78066E+02</wgt>
<wgt id='4235'>0.80319E+02</wgt>
<wgt id='4236'>0.78406E+02</wgt>
<wgt id='4237'>0.79850E+02</wgt>
<wgt id='4238'>0.78189E+02</wgt>
<wgt id='4239'>0.79330E+02</wgt>
<wgt id='4240'>0.78825E+02</wgt>
<wgt id='4241'>0.79449E+02</wgt>
<wgt id='4242'>0.79070E+02</wgt>
<wgt id='4243'>0.79362E+02</wgt>
<wgt id='4244'>0.79673E+02</wgt>
<wgt id='4245'>0.78825E+02</wgt>
<wgt id='4246'>0.79505E+02</wgt>
<wgt id='4247'>0.78524E+02</wgt>
<wgt id='4248'>0.79667E+02</wgt>
<wgt id='4249'>0.80402E+02</wgt>
<wgt id='4250'>0.78205E+02</wgt>
<wgt id='4251'>0.80841E+02</wgt>
<wgt id='4252'>0.78340E+02</wgt>
<wgt id='4253'>0.80021E+02</wgt>
<wgt id='4254'>0.78512E+02</wgt>
<wgt id='4255'>0.80692E+02</wgt>
<wgt id='4256'>0.78665E+02</wgt>
<wgt id='4257'>0.77865E+02</wgt>
<wgt id='4258'>0.79686E+02</wgt>
<wgt id='4300'>0.81562E+02</wgt>
<wgt id='4301'>0.81207E+02</wgt>
<wgt id='5000'>0.81834E+02</wgt>
<wgt id='5001'>0.81895E+02</wgt>
<wgt id='5002'>0.81755E+02</wgt>
<wgt id='5003'>0.81852E+02</wgt>
<wgt id='5004'>0.81816E+02</wgt>
<wgt id='5005'>0.81864E+02</wgt>
<wgt id='5006'>0.81784E+02</wgt>
<wgt id='5007'>0.81933E+02</wgt>
<wgt id='5008'>0.81752E+02</wgt>
<wgt id='5009'>0.81970E+02</wgt>
<wgt id='5010'>0.81693E+02</wgt>
<wgt id='5011'>0.82137E+02</wgt>
<wgt id='5012'>0.81542E+02</wgt>
<wgt id='5013'>0.82058E+02</wgt>
<wgt id='5014'>0.81675E+02</wgt>
<wgt id='5015'>0.81427E+02</wgt>
<wgt id='5016'>0.81427E+02</wgt>
<wgt id='5017'>0.82011E+02</wgt>
<wgt id='5018'>0.81716E+02</wgt>
<wgt id='5019'>0.82133E+02</wgt>
<wgt id='5020'>0.81422E+02</wgt>
<wgt id='5021'>0.81883E+02</wgt>
<wgt id='5022'>0.81760E+02</wgt>
<wgt id='5023'>0.81819E+02</wgt>
<wgt id='5024'>0.81868E+02</wgt>
<wgt id='5025'>0.81699E+02</wgt>
<wgt id='5026'>0.81979E+02</wgt>
<wgt id='5027'>0.81905E+02</wgt>
<wgt id='5028'>0.81641E+02</wgt>
<wgt id='5029'>0.82835E+02</wgt>
<wgt id='5030'>0.81273E+02</wgt>
<wgt id='5031'>0.81192E+02</wgt>
<wgt id='5032'>0.83814E+02</wgt>
<wgt id='5033'>0.81691E+02</wgt>
<wgt id='5034'>0.81986E+02</wgt>
<wgt id='5035'>0.81847E+02</wgt>
<wgt id='5036'>0.81816E+02</wgt>
<wgt id='5037'>0.81520E+02</wgt>
<wgt id='5038'>0.82009E+02</wgt>
<wgt id='5039'>0.82010E+02</wgt>
<wgt id='5040'>0.81392E+02</wgt>
<wgt id='5041'>0.81402E+02</wgt>
<wgt id='5042'>0.82324E+02</wgt>
<wgt id='5043'>0.82079E+02</wgt>
<wgt id='5044'>0.81619E+02</wgt>
<wgt id='5045'>0.81873E+02</wgt>
<wgt id='5046'>0.82025E+02</wgt>
<wgt id='5047'>0.81931E+02</wgt>
<wgt id='5048'>0.81413E+02</wgt>
<wgt id='5049'>0.81810E+02</wgt>
<wgt id='5050'>0.81974E+02</wgt>
<wgt id='5051'>0.82010E+02</wgt>
<wgt id='5052'>0.81734E+02</wgt>
<wgt id='5053'>0.82263E+02</wgt>
<wgt id='5054'>0.81872E+02</wgt>
<wgt id='5055'>0.81796E+02</wgt>
<wgt id='5056'>0.81954E+02</wgt>
<wgt id='5057'>0.81424E+02</wgt>
<wgt id='5058'>0.82119E+02</wgt>
<wgt id='5059'>0.81779E+02</wgt>
<wgt id='5060'>0.81910E+02</wgt>
<wgt id='5061'>0.82329E+02</wgt>
<wgt id='5062'>0.81953E+02</wgt>
<wgt id='5063'>0.82246E+02</wgt>
<wgt id='5064'>0.81835E+02</wgt>
<wgt id='5100'>0.81834E+02</wgt>
<wgt id='5101'>0.81779E+02</wgt>
<wgt id='6000'>0.82326E+02</wgt>
<wgt id='6001'>0.82494E+02</wgt>
<wgt id='6002'>0.82001E+02</wgt>
<wgt id='6003'>0.81971E+02</wgt>
<wgt id='6004'>0.82556E+02</wgt>
<wgt id='6005'>0.81581E+02</wgt>
<wgt id='6006'>0.82853E+02</wgt>
<wgt id='6007'>0.81881E+02</wgt>
<wgt id='6008'>0.83054E+02</wgt>
<wgt id='6009'>0.82865E+02</wgt>
<wgt id='6010'>0.81052E+02</wgt>
<wgt id='6011'>0.82459E+02</wgt>
<wgt id='6012'>0.82890E+02</wgt>
<wgt id='6013'>0.81971E+02</wgt>
<wgt id='6014'>0.82102E+02</wgt>
<wgt id='6015'>0.81740E+02</wgt>
<wgt id='6016'>0.82573E+02</wgt>
<wgt id='6017'>0.82226E+02</wgt>
<wgt id='6018'>0.81953E+02</wgt>
<wgt id='6019'>0.82459E+02</wgt>
<wgt id='6020'>0.82543E+02</wgt>
<wgt id='6021'>0.82348E+02</wgt>
<wgt id='6022'>0.82875E+02</wgt>
<wgt id='6023'>0.82410E+02</wgt>
<wgt id='6024'>0.82478E+02</wgt>
<wgt id='6025'>0.82788E+02</wgt>
<wgt id='6026'>0.82331E+02</wgt>
<wgt id='6027'>0.82278E+02</wgt>
<wgt id='6028'>0.82148E+02</wgt>
<wgt id='6029'>0.82261E+02</wgt>
<wgt id='6030'>0.82195E+02</wgt>
<wgt id='6031'>0.81831E+02</wgt>
<wgt id='6032'>0.82503E+02</wgt>
<wgt id='6033'>0.82207E+02</wgt>
<wgt id='6034'>0.82861E+02</wgt>
<wgt id='6035'>0.82354E+02</wgt>
<wgt id='6036'>0.82711E+02</wgt>
<wgt id='6037'>0.82313E+02</wgt>
<wgt id='6038'>0.82390E+02</wgt>
<wgt id='6039'>0.82538E+02</wgt>
<wgt id='6040'>0.82185E+02</wgt>
<wgt id='6041'>0.80936E+02</wgt>
<wgt id='6042'>0.83255E+02</wgt>
<wgt id='7000'>0.80625E+02</wgt>
<wgt id='7001'>0.80085E+02</wgt>
<wgt id='7002'>0.80281E+02</wgt>
<wgt id='7003'>0.80123E+02</wgt>
<wgt id='7004'>0.80243E+02</wgt>
<wgt id='7005'>0.80160E+02</wgt>
<wgt id='7006'>0.80206E+02</wgt>
<wgt id='7007'>0.80695E+02</wgt>
<wgt id='7008'>0.79686E+02</wgt>
<wgt id='7009'>0.79774E+02</wgt>
<wgt id='7010'>0.80606E+02</wgt>
<wgt id='7011'>0.80436E+02</wgt>
<wgt id='7012'>0.79941E+02</wgt>
<wgt id='7013'>0.80333E+02</wgt>
<wgt id='7014'>0.80026E+02</wgt>
<wgt id='7015'>0.80237E+02</wgt>
<wgt id='7016'>0.79890E+02</wgt>
<wgt id='7017'>0.80348E+02</wgt>
<wgt id='7018'>0.80042E+02</wgt>
<wgt id='7019'>0.80512E+02</wgt>
<wgt id='7020'>0.79889E+02</wgt>
<wgt id='7021'>0.80816E+02</wgt>
<wgt id='7022'>0.79612E+02</wgt>
<wgt id='7023'>0.79442E+02</wgt>
<wgt id='7024'>0.80860E+02</wgt>
<wgt id='7025'>0.78848E+02</wgt>
<wgt id='7026'>0.81428E+02</wgt>
<wgt id='7027'>0.79561E+02</wgt>
<wgt id='7028'>0.80875E+02</wgt>
<wgt id='8000'>0.79169E+02</wgt>
<wgt id='8001'>0.79170E+02</wgt>
<wgt id='8002'>0.79194E+02</wgt>
<wgt id='8003'>0.79164E+02</wgt>
<wgt id='8004'>0.79167E+02</wgt>
<wgt id='8005'>0.79028E+02</wgt>
<wgt id='8006'>0.79321E+02</wgt>
<wgt id='8007'>0.79426E+02</wgt>
<wgt id='8008'>0.79309E+02</wgt>
<wgt id='8009'>0.79465E+02</wgt>
<wgt id='8010'>0.79049E+02</wgt>
<wgt id='8011'>0.79259E+02</wgt>
<wgt id='8012'>0.78860E+02</wgt>
<wgt id='8013'>0.78974E+02</wgt>
<wgt id='8014'>0.79443E+02</wgt>
<wgt id='8015'>0.79186E+02</wgt>
<wgt id='8016'>0.79273E+02</wgt>
<wgt id='8017'>0.79273E+02</wgt>
<wgt id='8018'>0.79465E+02</wgt>
<wgt id='8019'>0.79093E+02</wgt>
<wgt id='8020'>0.79350E+02</wgt>
<wgt id='8021'>0.79085E+02</wgt>
<wgt id='8022'>0.79441E+02</wgt>
<wgt id='8023'>0.79000E+02</wgt>
<wgt id='8024'>0.78704E+02</wgt>
<wgt id='8025'>0.78891E+02</wgt>
<wgt id='8026'>0.79172E+02</wgt>
<wgt id='8027'>0.79317E+02</wgt>
<wgt id='8028'>0.79202E+02</wgt>
<wgt id='8029'>0.79745E+02</wgt>
<wgt id='3000'>0.81104E+02</wgt>
<wgt id='3001'>0.81539E+02</wgt>
<wgt id='3002'>0.79718E+02</wgt>
<wgt id='3003'>0.80144E+02</wgt>
<wgt id='3004'>0.82623E+02</wgt>
<wgt id='3005'>0.80733E+02</wgt>
<wgt id='3006'>0.84418E+02</wgt>
<wgt id='3007'>0.81234E+02</wgt>
<wgt id='3008'>0.81041E+02</wgt>
<wgt id='3009'>0.80678E+02</wgt>
<wgt id='3010'>0.82280E+02</wgt>
<wgt id='3011'>0.79399E+02</wgt>
<wgt id='3012'>0.83290E+02</wgt>
<wgt id='3013'>0.78982E+02</wgt>
<wgt id='3014'>0.81856E+02</wgt>
<wgt id='3015'>0.76659E+02</wgt>
<wgt id='3016'>0.80900E+02</wgt>
<wgt id='3017'>0.82423E+02</wgt>
<wgt id='3018'>0.81703E+02</wgt>
<wgt id='3019'>0.77982E+02</wgt>
<wgt id='3020'>0.78596E+02</wgt>
<wgt id='3021'>0.79085E+02</wgt>
<wgt id='3022'>0.77940E+02</wgt>
<wgt id='3023'>0.78590E+02</wgt>
<wgt id='3024'>0.81728E+02</wgt>
<wgt id='3025'>0.81415E+02</wgt>
<wgt id='3026'>0.79613E+02</wgt>
<wgt id='3027'>0.79020E+02</wgt>
<wgt id='3028'>0.82679E+02</wgt>
<wgt id='3029'>0.81232E+02</wgt>
<wgt id='3030'>0.82099E+02</wgt>
<wgt id='3031'>0.82064E+02</wgt>
<wgt id='3032'>0.81136E+02</wgt>
<wgt id='3033'>0.80197E+02</wgt>
<wgt id='3034'>0.84599E+02</wgt>
<wgt id='3035'>0.79096E+02</wgt>
<wgt id='3036'>0.80890E+02</wgt>
<wgt id='3037'>0.78841E+02</wgt>
<wgt id='3038'>0.82027E+02</wgt>
<wgt id='3039'>0.79902E+02</wgt>
<wgt id='3040'>0.82672E+02</wgt>
<wgt id='3041'>0.82779E+02</wgt>
<wgt id='3042'>0.85442E+02</wgt>
<wgt id='3043'>0.81916E+02</wgt>
<wgt id='3044'>0.83129E+02</wgt>
<wgt id='3045'>0.81194E+02</wgt>
<wgt id='3046'>0.81774E+02</wgt>
<wgt id='3047'>0.80437E+02</wgt>
<wgt id='3048'>0.82421E+02</wgt>
<wgt id='3049'>0.77954E+02</wgt>
<wgt id='3050'>0.81398E+02</wgt>
<wgt id='3051'>0.81062E+02</wgt>
<wgt id='3052'>0.80812E+02</wgt>
<wgt id='3053'>0.80061E+02</wgt>
<wgt id='3054'>0.80641E+02</wgt>
<wgt id='3055'>0.81245E+02</wgt>
<wgt id='3056'>0.82421E+02</wgt>
<wgt id='3057'>0.79850E+02</wgt>
<wgt id='3058'>0.82101E+02</wgt>
<wgt id='3059'>0.81271E+02</wgt>
<wgt id='3060'>0.80468E+02</wgt>
<wgt id='3061'>0.80062E+02</wgt>
<wgt id='3062'>0.81511E+02</wgt>
<wgt id='3063'>0.79030E+02</wgt>
<wgt id='3064'>0.81754E+02</wgt>
<wgt id='3065'>0.80014E+02</wgt>
<wgt id='3066'>0.84353E+02</wgt>
<wgt id='3067'>0.81268E+02</wgt>
<wgt id='3068'>0.80004E+02</wgt>
<wgt id='3069'>0.81241E+02</wgt>
<wgt id='3070'>0.81463E+02</wgt>
<wgt id='3071'>0.78478E+02</wgt>
<wgt id='3072'>0.76857E+02</wgt>
<wgt id='3073'>0.81336E+02</wgt>
<wgt id='3074'>0.79139E+02</wgt>
<wgt id='3075'>0.81968E+02</wgt>
<wgt id='3076'>0.81587E+02</wgt>
<wgt id='3077'>0.80753E+02</wgt>
<wgt id='3078'>0.78075E+02</wgt>
<wgt id='3079'>0.79423E+02</wgt>
<wgt id='3080'>0.83447E+02</wgt>
<wgt id='3081'>0.81856E+02</wgt>
<wgt id='3082'>0.80900E+02</wgt>
<wgt id='3083'>0.81724E+02</wgt>
<wgt id='3084'>0.80866E+02</wgt>
<wgt id='3085'>0.79345E+02</wgt>
<wgt id='3086'>0.83862E+02</wgt>
<wgt id='3087'>0.81161E+02</wgt>
<wgt id='3088'>0.84315E+02</wgt>
<wgt id='3089'>0.86046E+02</wgt>
<wgt id='3090'>0.85145E+02</wgt>
<wgt id='3091'>0.83181E+02</wgt>
<wgt id='3092'>0.80192E+02</wgt>
<wgt id='3093'>0.80555E+02</wgt>
<wgt id='3094'>0.81730E+02</wgt>
<wgt id='3095'>0.82671E+02</wgt>
<wgt id='3096'>0.80279E+02</wgt>
<wgt id='3097'>0.83263E+02</wgt>
<wgt id='3098'>0.82185E+02</wgt>
<wgt id='3099'>0.80015E+02</wgt>
<wgt id='3100'>0.80694E+02</wgt>
<wgt id='3200'>0.77742E+02</wgt>
<wgt id='3201'>0.79012E+02</wgt>
<wgt id='3202'>0.76284E+02</wgt>
<wgt id='3203'>0.77936E+02</wgt>
<wgt id='3204'>0.76480E+02</wgt>
<wgt id='3205'>0.78360E+02</wgt>
<wgt id='3206'>0.78766E+02</wgt>
<wgt id='3207'>0.79343E+02</wgt>
<wgt id='3208'>0.78343E+02</wgt>
<wgt id='3209'>0.77581E+02</wgt>
<wgt id='3210'>0.77557E+02</wgt>
<wgt id='3211'>0.77398E+02</wgt>
<wgt id='3212'>0.77702E+02</wgt>
<wgt id='3213'>0.77626E+02</wgt>
<wgt id='3214'>0.78728E+02</wgt>
<wgt id='3215'>0.78078E+02</wgt>
<wgt id='3216'>0.79650E+02</wgt>
<wgt id='3217'>0.77748E+02</wgt>
<wgt id='3218'>0.78459E+02</wgt>
<wgt id='3219'>0.77436E+02</wgt>
<wgt id='3220'>0.78406E+02</wgt>
<wgt id='3221'>0.77711E+02</wgt>
<wgt id='3222'>0.80739E+02</wgt>
<wgt id='3223'>0.78037E+02</wgt>
<wgt id='3224'>0.77580E+02</wgt>
<wgt id='3225'>0.78939E+02</wgt>
<wgt id='3226'>0.77677E+02</wgt>
<wgt id='3227'>0.77545E+02</wgt>
<wgt id='3228'>0.76541E+02</wgt>
<wgt id='3229'>0.78320E+02</wgt>
<wgt id='3230'>0.77372E+02</wgt>
<wgt id='3231'>0.77736E+02</wgt>
<wgt id='3232'>0.78279E+02</wgt>
<wgt id='3233'>0.78874E+02</wgt>
<wgt id='3234'>0.76593E+02</wgt>
<wgt id='3235'>0.77844E+02</wgt>
<wgt id='3236'>0.76542E+02</wgt>
<wgt id='3237'>0.78339E+02</wgt>
<wgt id='3238'>0.76735E+02</wgt>
<wgt id='3239'>0.77946E+02</wgt>
<wgt id='3240'>0.76110E+02</wgt>
<wgt id='3241'>0.79148E+02</wgt>
<wgt id='3242'>0.77642E+02</wgt>
<wgt id='3243'>0.76531E+02</wgt>
<wgt id='3244'>0.76980E+02</wgt>
<wgt id='3245'>0.77909E+02</wgt>
<wgt id='3246'>0.75855E+02</wgt>
<wgt id='3247'>0.79472E+02</wgt>
<wgt id='3248'>0.77162E+02</wgt>
<wgt id='3249'>0.76257E+02</wgt>
<wgt id='3250'>0.78377E+02</wgt>
<wgt id='3251'>0.77285E+02</wgt>
<wgt id='3252'>0.78365E+02</wgt>
<wgt id='3253'>0.76271E+02</wgt>
<wgt id='3254'>0.76952E+02</wgt>
<wgt id='3255'>0.77298E+02</wgt>
<wgt id='3256'>0.78970E+02</wgt>
<wgt id='3257'>0.78021E+02</wgt>
<wgt id='3258'>0.77311E+02</wgt>
<wgt id='3259'>0.77774E+02</wgt>
<wgt id='3260'>0.78306E+02</wgt>
<wgt id='3261'>0.78855E+02</wgt>
<wgt id='3262'>0.78254E+02</wgt>
<wgt id='3263'>0.80678E+02</wgt>
<wgt id='3264'>0.77303E+02</wgt>
<wgt id='3265'>0.76674E+02</wgt>
<wgt id='3266'>0.78339E+02</wgt>
<wgt id='3267'>0.76870E+02</wgt>
<wgt id='3268'>0.77104E+02</wgt>
<wgt id='3269'>0.77746E+02</wgt>
<wgt id='3270'>0.77236E+02</wgt>
<wgt id='3271'>0.77579E+02</wgt>
<wgt id='3272'>0.78201E+02</wgt>
<wgt id='3273'>0.76661E+02</wgt>
<wgt id='3274'>0.77118E+02</wgt>
<wgt id='3275'>0.78474E+02</wgt>
<wgt id='3276'>0.76130E+02</wgt>
<wgt id='3277'>0.76808E+02</wgt>
<wgt id='3278'>0.77633E+02</wgt>
<wgt id='3279'>0.78594E+02</wgt>
<wgt id='3280'>0.78025E+02</wgt>
<wgt id='3281'>0.78082E+02</wgt>
<wgt id='3282'>0.77894E+02</wgt>
<wgt id='3283'>0.77683E+02</wgt>
<wgt id='3284'>0.78991E+02</wgt>
<wgt id='3285'>0.76871E+02</wgt>
<wgt id='3286'>0.76370E+02</wgt>
<wgt id='3287'>0.77362E+02</wgt>
<wgt id='3288'>0.77414E+02</wgt>
<wgt id='3289'>0.77840E+02</wgt>
<wgt id='3290'>0.78009E+02</wgt>
<wgt id='3291'>0.75421E+02</wgt>
<wgt id='3292'>0.77941E+02</wgt>
<wgt id='3293'>0.78610E+02</wgt>
<wgt id='3294'>0.76275E+02</wgt>
<wgt id='3295'>0.77823E+02</wgt>
<wgt id='3296'>0.78836E+02</wgt>
<wgt id='3297'>0.76508E+02</wgt>
<wgt id='3298'>0.77424E+02</wgt>
<wgt id='3299'>0.77707E+02</wgt>
<wgt id='3300'>0.78818E+02</wgt>
<wgt id='3301'>0.76370E+02</wgt>
<wgt id='3302'>0.78976E+02</wgt>
<wgt id='3400'>0.78296E+02</wgt>
<wgt id='3401'>0.78690E+02</wgt>
<wgt id='3402'>0.77062E+02</wgt>
<wgt id='3403'>0.78072E+02</wgt>
<wgt id='3404'>0.78957E+02</wgt>
<wgt id='3405'>0.79361E+02</wgt>
<wgt id='3406'>0.78410E+02</wgt>
<wgt id='3407'>0.77579E+02</wgt>
<wgt id='3408'>0.78898E+02</wgt>
<wgt id='3409'>0.79896E+02</wgt>
<wgt id='3410'>0.80132E+02</wgt>
<wgt id='3411'>0.78885E+02</wgt>
<wgt id='3412'>0.78102E+02</wgt>
<wgt id='3413'>0.78301E+02</wgt>
<wgt id='3414'>0.78344E+02</wgt>
<wgt id='3415'>0.77482E+02</wgt>
<wgt id='3416'>0.78097E+02</wgt>
<wgt id='3417'>0.77063E+02</wgt>
<wgt id='3418'>0.77440E+02</wgt>
<wgt id='3419'>0.77155E+02</wgt>
<wgt id='3420'>0.77749E+02</wgt>
<wgt id='3421'>0.78432E+02</wgt>
<wgt id='3422'>0.76874E+02</wgt>
<wgt id='3423'>0.79200E+02</wgt>
<wgt id='3424'>0.79589E+02</wgt>
<wgt id='3425'>0.79804E+02</wgt>
<wgt id='3426'>0.77684E+02</wgt>
<wgt id='3427'>0.78280E+02</wgt>
<wgt id='3428'>0.77788E+02</wgt>
<wgt id='3429'>0.77910E+02</wgt>
<wgt id='3430'>0.77525E+02</wgt>
<wgt id='3431'>0.77125E+02</wgt>
<wgt id='3432'>0.77376E+02</wgt>
<wgt id='3433'>0.77893E+02</wgt>
<wgt id='3434'>0.79467E+02</wgt>
<wgt id='3435'>0.79508E+02</wgt>
<wgt id='3436'>0.77790E+02</wgt>
<wgt id='3437'>0.77398E+02</wgt>
<wgt id='3438'>0.77347E+02</wgt>
<wgt id='3439'>0.77851E+02</wgt>
<wgt id='3440'>0.78569E+02</wgt>
<wgt id='3441'>0.78243E+02</wgt>
<wgt id='3442'>0.77822E+02</wgt>
<wgt id='3443'>0.77906E+02</wgt>
<wgt id='3444'>0.78739E+02</wgt>
<wgt id='3445'>0.78366E+02</wgt>
<wgt id='3446'>0.78522E+02</wgt>
<wgt id='3447'>0.77813E+02</wgt>
<wgt id='3448'>0.79100E+02</wgt>
<wgt id='3449'>0.79784E+02</wgt>
<wgt id='3450'>0.79488E+02</wgt>
<wgt id='3451'>0.77787E+02</wgt>
<wgt id='3452'>0.78075E+02</wgt>
<wgt id='3453'>0.77095E+02</wgt>
<wgt id='3454'>0.78425E+02</wgt>
<wgt id='3455'>0.78694E+02</wgt>
<wgt id='3456'>0.77818E+02</wgt>
<wgt id='3457'>0.80558E+02</wgt>
<wgt id='3458'>0.78762E+02</wgt>
<wgt id='3459'>0.78231E+02</wgt>
<wgt id='3460'>0.78612E+02</wgt>
<wgt id='3461'>0.77312E+02</wgt>
<wgt id='3462'>0.78452E+02</wgt>
<wgt id='3463'>0.77435E+02</wgt>
<wgt id='3464'>0.78461E+02</wgt>
<wgt id='3465'>0.79348E+02</wgt>
<wgt id='3466'>0.78680E+02</wgt>
<wgt id='3467'>0.77400E+02</wgt>
<wgt id='3468'>0.79315E+02</wgt>
<wgt id='3469'>0.78272E+02</wgt>
<wgt id='3470'>0.77610E+02</wgt>
<wgt id='3471'>0.78680E+02</wgt>
<wgt id='3472'>0.77375E+02</wgt>
<wgt id='3473'>0.79270E+02</wgt>
<wgt id='3474'>0.79044E+02</wgt>
<wgt id='3475'>0.79516E+02</wgt>
<wgt id='3476'>0.77897E+02</wgt>
<wgt id='3477'>0.78800E+02</wgt>
<wgt id='3478'>0.80041E+02</wgt>
<wgt id='3479'>0.77171E+02</wgt>
<wgt id='3480'>0.77977E+02</wgt>
<wgt id='3481'>0.77807E+02</wgt>
<wgt id='3482'>0.79799E+02</wgt>
<wgt id='3483'>0.78586E+02</wgt>
<wgt id='3484'>0.78258E+02</wgt>
<wgt id='3485'>0.76999E+02</wgt>
<wgt id='3486'>0.77451E+02</wgt>
<wgt id='3487'>0.79722E+02</wgt>
<wgt id='3488'>0.77783E+02</wgt>
<wgt id='3489'>0.77845E+02</wgt>
<wgt id='3490'>0.80641E+02</wgt>
<wgt id='3491'>0.77915E+02</wgt>
<wgt id='3492'>0.78217E+02</wgt>
<wgt id='3493'>0.77652E+02</wgt>
<wgt id='3494'>0.75309E+02</wgt>
<wgt id='3495'>0.77504E+02</wgt>
<wgt id='3496'>0.78477E+02</wgt>
<wgt id='3497'>0.78596E+02</wgt>
<wgt id='3498'>0.77554E+02</wgt>
<wgt id='3499'>0.78919E+02</wgt>
<wgt id='3500'>0.77793E+02</wgt>
</rwgt>
</event>
<event>
     13 322200  8.11039E+01  4.23396E+01 -1.00000E+00  1.41190E-01
      21    -1     0     0   502   503  0.000000000E+00  0.000000000E+00  1.230434798E+03  1.230434798E+03  0.000000000E+00  0.00000E+00  9.000E+00
      21    -1     0     0   503   504  0.000000000E+00  0.000000000E+00 -6.019132135E+01  6.019132135E+01  0.000000000E+00  0.00000E+00  9.000E+00
       6     2     1     2   502     0  9.219643167E+01  6.385795642E+01  2.268571131E+02  3.047104713E+02  1.697241908E+02  0.00000E+00  9.000E+00
      -6     2     1     2     0   505 -5.801746635E+01 -8.884679531E+01  9.095740633E+02  9.317315602E+02  1.718689740E+02  0.00000E+00  9.000E+00
      21     1     1     2   505   504 -3.417896532E+01  2.498883889E+01  3.381230058E+01  5.418408816E+01  8.259061849E-07  0.00000E+00  9.000E+00
      24     2     3     3     0     0  1.511838568E+01 -3.241616451E+00  4.138187842E+01  9.288496733E+01  8.170730465E+01  0.00000E+00  9.000E+00
       5     1     3     3   502     0  7.707804599E+01  6.709957288E+01  1.854752346E+02  2.118255039E+02  5.060000000E+00  0.00000E+00 -1.000E+00
     -24     2     4     4     0     0 -9.462171048E+01 -3.255862519E+01  5.013141342E+02  5.179562563E+02  8.336360214E+01  0.00000E+00  9.000E+00
      -5     1     4     4     0   505  3.660424412E+01 -5.628817012E+01  4.082599291E+02  4.137753039E+02  5.060000000E+00  0.00000E+00  1.000E+00
     -11     1     6     6     0     0  1.767691995E+00  1.359806835E+00  6.517697219E+01  6.521511721E+01  5.100000000E-04  0.00000E+00  1.000E+00
      12     1     6     6     0     0  1.335069368E+01 -4.601423287E+00 -2.379509377E+01  2.766985012E+01  0.000000000E+00  0.00000E+00 -1.000E+00
      13     1     8     8     0     0 -5.353797163E+01  2.079261221E+00  1.036612078E+02  1.166888808E+02  1.057000000E-01  0.00000E+00 -1.000E+00
     -14     1     8     8     0     0 -4.108373884E+01 -3.463788641E+01  3.976529264E+02  4.012673755E+02  0.000000000E+00  0.00000E+00  1.000E+00
#rwgt            1           1   599.09695156643011               10       34395           0
<rwgt>
<wgt id='1001'>0.81104E+02</wgt>
<wgt id='1002'>0.66352E+02</wgt>
<wgt id='1003'>0.97461E+02</wgt>
<wgt id='1004'>0.76429E+02</wgt>
<wgt id='1005'>0.64178E+02</wgt>
<wgt id='1006'>0.89960E+02</wgt>
<wgt id='1007'>0.83841E+02</wgt>
<wgt id='1008'>0.65720E+02</wgt>
<wgt id='1009'>0.10403E+03</wgt>
<wgt id='2000'>0.81104E+02</wgt>
<wgt id='2001'>0.81025E+02</wgt>
<wgt id='2002'>0.81069E+02</wgt>
<wgt id='2003'>0.81046E+02</wgt>
<wgt id='2004'>0.81465E+02</wgt>
<wgt id='2005'>0.80777E+02</wgt>
<wgt id='2006'>0.81267E+02</wgt>
<wgt id='2007'>0.81214E+02</wgt>
<wgt id='2008'>0.81127E+02</wgt>
<wgt id='2009'>0.81209E+02</wgt>
<wgt id='2010'>0.80987E+02</wgt>
<wgt id='2011'>0.81163E+02</wgt>
<wgt id='2012'>0.81429E+02</wgt>
<wgt id='2013'>0.81023E+02</wgt>
<wgt id='2014'>0.81122E+02</wgt>
<wgt id='2015'>0.81271E+02</wgt>
<wgt id='2016'>0.80966E+02</wgt>
<wgt id='2017'>0.81055E+02</wgt>
<wgt id='2018'>0.80784E+02</wgt>
<wgt id='2019'>0.80890E+02</wgt>
<wgt id='2020'>0.80856E+02</wgt>
<wgt id='2021'>0.81177E+02</wgt>
<wgt id='2022'>0.81099E+02</wgt>
<wgt id='2023'>0.80916E+02</wgt>
<wgt id='2024'>0.80778E+02</wgt>
<wgt id='2025'>0.81225E+02</wgt>
<wgt id='2026'>0.81134E+02</wgt>
<wgt id='2027'>0.81558E+02</wgt>
<wgt id='2028'>0.80498E+02</wgt>
<wgt id='2029'>0.80830E+02</wgt>
<wgt id='2030'>0.81260E+02</wgt>
<wgt id='2031'>0.80786E+02</wgt>
<wgt id='2032'>0.81006E+02</wgt>
<wgt id='2033'>0.80926E+02</wgt>
<wgt id='2034'>0.80775E+02</wgt>
<wgt id='2035'>0.81200E+02</wgt>
<wgt id='2036'>0.81196E+02</wgt>
<wgt id='2037'>0.80921E+02</wgt>
<wgt id='2038'>0.81038E+02</wgt>
<wgt id='2039'>0.80999E+02</wgt>
<wgt id='2040'>0.80963E+02</wgt>
<wgt id='2041'>0.80921E+02</wgt>
<wgt id='2042'>0.81273E+02</wgt>
<wgt id='2043'>0.81124E+02</wgt>
<wgt id='2044'>0.81195E+02</wgt>
<wgt id='2045'>0.81139E+02</wgt>
<wgt id='2046'>0.80950E+02</wgt>
<wgt id='2047'>0.81154E+02</wgt>
<wgt id='2048'>0.81092E+02</wgt>
<wgt id='2049'>0.81007E+02</wgt>
<wgt id='2050'>0.81014E+02</wgt>
<wgt id='2051'>0.80988E+02</wgt>
<wgt id='2052'>0.81264E+02</wgt>
<wgt id='2053'>0.81106E+02</wgt>
<wgt id='2054'>0.81083E+02</wgt>
<wgt id='2055'>0.81000E+02</wgt>
<wgt id='2056'>0.81047E+02</wgt>
<wgt id='2057'>0.81137E+02</wgt>
<wgt id='2058'>0.81173E+02</wgt>
<wgt id='2059'>0.81127E+02</wgt>
<wgt id='2060'>0.81055E+02</wgt>
<wgt id='2061'>0.81046E+02</wgt>
<wgt id='2062'>0.81189E+02</wgt>
<wgt id='2063'>0.81115E+02</wgt>
<wgt id='2064'>0.81107E+02</wgt>
<wgt id='2065'>0.81185E+02</wgt>
<wgt id='2066'>0.81048E+02</wgt>
<wgt id='2067'>0.81036E+02</wgt>
<wgt id='2068'>0.81216E+02</wgt>
<wgt id='2069'>0.81094E+02</wgt>
<wgt id='2070'>0.81143E+02</wgt>
<wgt id='2071'>0.81052E+02</wgt>
<wgt id='2072'>0.81057E+02</wgt>
<wgt id='2073'>0.81132E+02</wgt>
<wgt id='2074'>0.81061E+02</wgt>
<wgt id='2075'>0.81090E+02</wgt>
<wgt id='2076'>0.81099E+02</wgt>
<wgt id='2077'>0.81161E+02</wgt>
<wgt id='2078'>0.81123E+02</wgt>
<wgt id='2079'>0.81069E+02</wgt>
<wgt id='2080'>0.81108E+02</wgt>
<wgt id='2081'>0.81073E+02</wgt>
<wgt id='2082'>0.81119E+02</wgt>
<wgt id='2083'>0.81193E+02</wgt>
<wgt id='2084'>0.81095E+02</wgt>
<wgt id='2085'>0.81128E+02</wgt>
<wgt id='2086'>0.81096E+02</wgt>
<wgt id='2087'>0.81115E+02</wgt>
<wgt id='2088'>0.81092E+02</wgt>
<wgt id='2089'>0.81074E+02</wgt>
<wgt id='2090'>0.81132E+02</wgt>
<wgt id='2091'>0.81119E+02</wgt>
<wgt id='2092'>0.81157E+02</wgt>
<wgt id='2093'>0.81061E+02</wgt>
<wgt id='2094'>0.81102E+02</wgt>
<wgt id='2095'>0.81141E+02</wgt>
<wgt id='2096'>0.81080E+02</wgt>
<wgt id='2097'>0.81132E+02</wgt>
<wgt id='2098'>0.81113E+02</wgt>
<wgt id='2099'>0.81122E+02</wgt>
<wgt id='2100'>0.81104E+02</wgt>
<wgt id='2101'>0.79237E+02</wgt>
<wgt id='2102'>0.82754E+02</wgt>
<wgt id='2200'>0.80836E+02</wgt>
<wgt id='2201'>0.71976E+02</wgt>
<wgt id='2202'>0.73744E+02</wgt>
<wgt id='2203'>0.75814E+02</wgt>
<wgt id='2204'>0.77085E+02</wgt>
<wgt id='2205'>0.79838E+02</wgt>
<wgt id='2206'>0.82062E+02</wgt>
<wgt id='2207'>0.84497E+02</wgt>
<wgt id='2208'>0.86961E+02</wgt>
<wgt id='2300'>0.86522E+02</wgt>
<wgt id='2301'>0.86594E+02</wgt>
<wgt id='2302'>0.86479E+02</wgt>
<wgt id='2303'>0.86512E+02</wgt>
<wgt id='2304'>0.86821E+02</wgt>
<wgt id='2305'>0.86580E+02</wgt>
<wgt id='2306'>0.86497E+02</wgt>
<wgt id='2307'>0.86551E+02</wgt>
<wgt id='2308'>0.86366E+02</wgt>
<wgt id='2309'>0.86447E+02</wgt>
<wgt id='2310'>0.86270E+02</wgt>
<wgt id='2311'>0.86544E+02</wgt>
<wgt id='2312'>0.86712E+02</wgt>
<wgt id='2313'>0.86541E+02</wgt>
<wgt id='2314'>0.86532E+02</wgt>
<wgt id='2315'>0.86486E+02</wgt>
<wgt id='2316'>0.86612E+02</wgt>
<wgt id='2317'>0.86534E+02</wgt>
<wgt id='2318'>0.86648E+02</wgt>
<wgt id='2319'>0.86495E+02</wgt>
<wgt id='2320'>0.86571E+02</wgt>
<wgt id='2321'>0.86532E+02</wgt>
<wgt id='2322'>0.86436E+02</wgt>
<wgt id='2323'>0.86380E+02</wgt>
<wgt id='2324'>0.86440E+02</wgt>
<wgt id='2325'>0.86587E+02</wgt>
<wgt id='2326'>0.86511E+02</wgt>
<wgt id='2327'>0.86578E+02</wgt>
<wgt id='2328'>0.86355E+02</wgt>
<wgt id='2329'>0.86489E+02</wgt>
<wgt id='2330'>0.86902E+02</wgt>
<wgt id='2331'>0.86616E+02</wgt>
<wgt id='2332'>0.86415E+02</wgt>
<wgt id='2333'>0.86435E+02</wgt>
<wgt id='2334'>0.86524E+02</wgt>
<wgt id='2335'>0.85976E+02</wgt>
<wgt id='2336'>0.86486E+02</wgt>
<wgt id='2337'>0.86866E+02</wgt>
<wgt id='2338'>0.86483E+02</wgt>
<wgt id='2339'>0.86309E+02</wgt>
<wgt id='2340'>0.86872E+02</wgt>
<wgt id='2341'>0.86784E+02</wgt>
<wgt id='2342'>0.86462E+02</wgt>
<wgt id='2343'>0.86460E+02</wgt>
<wgt id='2344'>0.86441E+02</wgt>
<wgt id='2345'>0.86385E+02</wgt>
<wgt id='2346'>0.87005E+02</wgt>
<wgt id='2347'>0.86621E+02</wgt>
<wgt id='2348'>0.86428E+02</wgt>
<wgt id='2349'>0.86558E+02</wgt>
<wgt id='2350'>0.86117E+02</wgt>
<wgt id='2351'>0.86696E+02</wgt>
<wgt id='2352'>0.86303E+02</wgt>
<wgt id='2353'>0.86568E+02</wgt>
<wgt id='2354'>0.86659E+02</wgt>
<wgt id='2355'>0.86374E+02</wgt>
<wgt id='2356'>0.86429E+02</wgt>
<wgt id='2357'>0.86605E+02</wgt>
<wgt id='2358'>0.86398E+02</wgt>
<wgt id='2359'>0.86445E+02</wgt>
<wgt id='2360'>0.86695E+02</wgt>
<wgt id='2361'>0.86554E+02</wgt>
<wgt id='2362'>0.86603E+02</wgt>
<wgt id='2363'>0.86389E+02</wgt>
<wgt id='2364'>0.86576E+02</wgt>
<wgt id='2365'>0.86384E+02</wgt>
<wgt id='2366'>0.86557E+02</wgt>
<wgt id='2367'>0.86358E+02</wgt>
<wgt id='2368'>0.86535E+02</wgt>
<wgt id='2369'>0.86425E+02</wgt>
<wgt id='2370'>0.86456E+02</wgt>
<wgt id='2371'>0.86475E+02</wgt>
<wgt id='2372'>0.86588E+02</wgt>
<wgt id='2373'>0.86515E+02</wgt>
<wgt id='2374'>0.86698E+02</wgt>
<wgt id='2375'>0.86579E+02</wgt>
<wgt id='2376'>0.86590E+02</wgt>
<wgt id='2377'>0.86544E+02</wgt>
<wgt id='2378'>0.86594E+02</wgt>
<wgt id='2379'>0.86386E+02</wgt>
<wgt id='2380'>0.86430E+02</wgt>
<wgt id='2381'>0.86476E+02</wgt>
<wgt id='2382'>0.86435E+02</wgt>
<wgt id='2383'>0.86513E+02</wgt>
<wgt id='2384'>0.86494E+02</wgt>
<wgt id='2385'>0.86559E+02</wgt>
<wgt id='2386'>0.86504E+02</wgt>
<wgt id='2387'>0.86439E+02</wgt>
<wgt id='2388'>0.86459E+02</wgt>
<wgt id='2389'>0.86501E+02</wgt>
<wgt id='2390'>0.86480E+02</wgt>
<wgt id='2391'>0.86464E+02</wgt>
<wgt id='2392'>0.86530E+02</wgt>
<wgt id='2393'>0.86560E+02</wgt>
<wgt id='2394'>0.86547E+02</wgt>
<wgt id='2395'>0.86536E+02</wgt>
<wgt id='2396'>0.86499E+02</wgt>
<wgt id='2397'>0.86501E+02</wgt>
<wgt id='2398'>0.86526E+02</wgt>
<wgt id='2399'>0.86548E+02</wgt>
<wgt id='2400'>0.86547E+02</wgt>
<wgt id='2401'>0.84967E+02</wgt>
<wgt id='2402'>0.88527E+02</wgt>
<wgt id='2500'>0.83395E+02</wgt>
<wgt id='2501'>0.87953E+02</wgt>
<wgt id='2600'>0.79820E+02</wgt>
<wgt id='2601'>0.79562E+02</wgt>
<wgt id='2602'>0.79893E+02</wgt>
<wgt id='2603'>0.79803E+02</wgt>
<wgt id='2604'>0.79901E+02</wgt>
<wgt id='2605'>0.79718E+02</wgt>
<wgt id='2606'>0.79898E+02</wgt>
<wgt id='2607'>0.79922E+02</wgt>
<wgt id='2608'>0.79942E+02</wgt>
<wgt id='2609'>0.79740E+02</wgt>
<wgt id='2610'>0.79758E+02</wgt>
<wgt id='2611'>0.79814E+02</wgt>
<wgt id='2612'>0.79805E+02</wgt>
<wgt id='2613'>0.79855E+02</wgt>
<wgt id='2614'>0.79731E+02</wgt>
<wgt id='2615'>0.79690E+02</wgt>
<wgt id='2616'>0.79906E+02</wgt>
<wgt id='2617'>0.79642E+02</wgt>
<wgt id='2618'>0.79935E+02</wgt>
<wgt id='2619'>0.79899E+02</wgt>
<wgt id='2620'>0.79590E+02</wgt>
<wgt id='2621'>0.79956E+02</wgt>
<wgt id='2622'>0.80070E+02</wgt>
<wgt id='2623'>0.79775E+02</wgt>
<wgt id='2624'>0.79727E+02</wgt>
<wgt id='2625'>0.80024E+02</wgt>
<wgt id='2626'>0.79935E+02</wgt>
<wgt id='2627'>0.79949E+02</wgt>
<wgt id='2628'>0.79740E+02</wgt>
<wgt id='2629'>0.79965E+02</wgt>
<wgt id='2630'>0.80092E+02</wgt>
<wgt id='2631'>0.79842E+02</wgt>
<wgt id='2632'>0.79511E+02</wgt>
<wgt id='2633'>0.79774E+02</wgt>
<wgt id='2634'>0.79815E+02</wgt>
<wgt id='2635'>0.79592E+02</wgt>
<wgt id='2636'>0.79880E+02</wgt>
<wgt id='2637'>0.79761E+02</wgt>
<wgt id='2638'>0.79766E+02</wgt>
<wgt id='2639'>0.79819E+02</wgt>
<wgt id='2640'>0.79849E+02</wgt>
<wgt id='2641'>0.79714E+02</wgt>
<wgt id='2642'>0.79816E+02</wgt>
<wgt id='2643'>0.79781E+02</wgt>
<wgt id='2644'>0.79804E+02</wgt>
<wgt id='2645'>0.79749E+02</wgt>
<wgt id='2646'>0.79758E+02</wgt>
<wgt id='2647'>0.79830E+02</wgt>
<wgt id='2648'>0.79831E+02</wgt>
<wgt id='2649'>0.79858E+02</wgt>
<wgt id='2650'>0.79842E+02</wgt>
<wgt id='2651'>0.78527E+02</wgt>
<wgt id='2652'>0.80757E+02</wgt>
<wgt id='2700'>0.77384E+02</wgt>
<wgt id='2701'>0.78527E+02</wgt>
<wgt id='2702'>0.79174E+02</wgt>
<wgt id='2703'>0.80436E+02</wgt>
<wgt id='2704'>0.80757E+02</wgt>
<wgt id='2705'>0.82155E+02</wgt>
<wgt id='2800'>0.82186E+02</wgt>
<wgt id='4000'>0.84725E+02</wgt>
<wgt id='4001'>0.84906E+02</wgt>
<wgt id='4002'>0.84787E+02</wgt>
<wgt id='4003'>0.83355E+02</wgt>
<wgt id='4004'>0.86490E+02</wgt>
<wgt id='4005'>0.85282E+02</wgt>
<wgt id='4006'>0.84389E+02</wgt>
<wgt id='4007'>0.84772E+02</wgt>
<wgt id='4008'>0.84747E+02</wgt>
<wgt id='4009'>0.84092E+02</wgt>
<wgt id='4010'>0.84868E+02</wgt>
<wgt id='4011'>0.85328E+02</wgt>
<wgt id='4012'>0.83890E+02</wgt>
<wgt id='4013'>0.84817E+02</wgt>
<wgt id='4014'>0.84826E+02</wgt>
<wgt id='4015'>0.85554E+02</wgt>
<wgt id='4016'>0.85521E+02</wgt>
<wgt id='4017'>0.84894E+02</wgt>
<wgt id='4018'>0.84574E+02</wgt>
<wgt id='4019'>0.84316E+02</wgt>
<wgt id='4020'>0.85561E+02</wgt>
<wgt id='4021'>0.85110E+02</wgt>
<wgt id='4022'>0.84065E+02</wgt>
<wgt id='4023'>0.85274E+02</wgt>
<wgt id='4024'>0.85139E+02</wgt>
<wgt id='4025'>0.84517E+02</wgt>
<wgt id='4026'>0.85366E+02</wgt>
<wgt id='4027'>0.85997E+02</wgt>
<wgt id='4028'>0.83687E+02</wgt>
<wgt id='4029'>0.86223E+02</wgt>
<wgt id='4030'>0.83968E+02</wgt>
<wgt id='4031'>0.84846E+02</wgt>
<wgt id='4032'>0.86429E+02</wgt>
<wgt id='4033'>0.85591E+02</wgt>
<wgt id='4034'>0.84249E+02</wgt>
<wgt id='4035'>0.84664E+02</wgt>
<wgt id='4036'>0.84789E+02</wgt>
<wgt id='4037'>0.87763E+02</wgt>
<wgt id='4038'>0.82341E+02</wgt>
<wgt id='4039'>0.86397E+02</wgt>
<wgt id='4040'>0.83309E+02</wgt>
<wgt id='4041'>0.85296E+02</wgt>
<wgt id='4042'>0.84169E+02</wgt>
<wgt id='4043'>0.84647E+02</wgt>
<wgt id='4044'>0.84226E+02</wgt>
<wgt id='4045'>0.84306E+02</wgt>
<wgt id='4046'>0.85007E+02</wgt>
<wgt id='4047'>0.85503E+02</wgt>
<wgt id='4048'>0.84894E+02</wgt>
<wgt id='4049'>0.84726E+02</wgt>
<wgt id='4050'>0.84891E+02</wgt>
<wgt id='4051'>0.84397E+02</wgt>
<wgt id='4052'>0.85294E+02</wgt>
<wgt id='4053'>0.84658E+02</wgt>
<wgt id='4054'>0.84299E+02</wgt>
<wgt id='4055'>0.85248E+02</wgt>
<wgt id='4056'>0.84186E+02</wgt>
<wgt id='4057'>0.84048E+02</wgt>
<wgt id='4058'>0.85188E+02</wgt>
<wgt id='4100'>0.84949E+02</wgt>
<wgt id='4101'>0.84785E+02</wgt>
<wgt id='4102'>0.84747E+02</wgt>
<wgt id='4103'>0.84823E+02</wgt>
<wgt id='4200'>0.83033E+02</wgt>
<wgt id='4201'>0.82967E+02</wgt>
<wgt id='4202'>0.83287E+02</wgt>
<wgt id='4203'>0.82799E+02</wgt>
<wgt id='4204'>0.83040E+02</wgt>
<wgt id='4205'>0.83053E+02</wgt>
<wgt id='4206'>0.83209E+02</wgt>
<wgt id='4207'>0.83802E+02</wgt>
<wgt id='4208'>0.82667E+02</wgt>
<wgt id='4209'>0.82607E+02</wgt>
<wgt id='4210'>0.83329E+02</wgt>
<wgt id='4211'>0.83280E+02</wgt>
<wgt id='4212'>0.82850E+02</wgt>
<wgt id='4213'>0.83020E+02</wgt>
<wgt id='4214'>0.83055E+02</wgt>
<wgt id='4215'>0.83126E+02</wgt>
<wgt id='4216'>0.83232E+02</wgt>
<wgt id='4217'>0.83191E+02</wgt>
<wgt id='4218'>0.82843E+02</wgt>
<wgt id='4219'>0.83248E+02</wgt>
<wgt id='4220'>0.82945E+02</wgt>
<wgt id='4221'>0.82943E+02</wgt>
<wgt id='4222'>0.83461E+02</wgt>
<wgt id='4223'>0.81750E+02</wgt>
<wgt id='4224'>0.83008E+02</wgt>
<wgt id='4225'>0.82545E+02</wgt>
<wgt id='4226'>0.84020E+02</wgt>
<wgt id='4227'>0.83736E+02</wgt>
<wgt id='4228'>0.82445E+02</wgt>
<wgt id='4229'>0.81788E+02</wgt>
<wgt id='4230'>0.84220E+02</wgt>
<wgt id='4231'>0.83631E+02</wgt>
<wgt id='4232'>0.82128E+02</wgt>
<wgt id='4233'>0.83386E+02</wgt>
<wgt id='4234'>0.82066E+02</wgt>
<wgt id='4235'>0.84215E+02</wgt>
<wgt id='4236'>0.81845E+02</wgt>
<wgt id='4237'>0.84720E+02</wgt>
<wgt id='4238'>0.80669E+02</wgt>
<wgt id='4239'>0.82858E+02</wgt>
<wgt id='4240'>0.83382E+02</wgt>
<wgt id='4241'>0.83283E+02</wgt>
<wgt id='4242'>0.82774E+02</wgt>
<wgt id='4243'>0.83639E+02</wgt>
<wgt id='4244'>0.82466E+02</wgt>
<wgt id='4245'>0.83335E+02</wgt>
<wgt id='4246'>0.82252E+02</wgt>
<wgt id='4247'>0.82067E+02</wgt>
<wgt id='4248'>0.83623E+02</wgt>
<wgt id='4249'>0.83878E+02</wgt>
<wgt id='4250'>0.82040E+02</wgt>
<wgt id='4251'>0.84810E+02</wgt>
<wgt id='4252'>0.81909E+02</wgt>
<wgt id='4253'>0.84173E+02</wgt>
<wgt id='4254'>0.81631E+02</wgt>
<wgt id='4255'>0.84726E+02</wgt>
<wgt id='4256'>0.82312E+02</wgt>
<wgt id='4257'>0.81627E+02</wgt>
<wgt id='4258'>0.83442E+02</wgt>
<wgt id='4300'>0.83675E+02</wgt>
<wgt id='4301'>0.84877E+02</wgt>
<wgt id='5000'>0.83544E+02</wgt>
<wgt id='5001'>0.83584E+02</wgt>
<wgt id='5002'>0.83494E+02</wgt>
<wgt id='5003'>0.83562E+02</wgt>
<wgt id='5004'>0.83528E+02</wgt>
<wgt id='5005'>0.83549E+02</wgt>
<wgt id='5006'>0.83536E+02</wgt>
<wgt id='5007'>0.83635E+02</wgt>
<wgt id='5008'>0.83470E+02</wgt>
<wgt id='5009'>0.83631E+02</wgt>
<wgt id='5010'>0.83455E+02</wgt>
<wgt id='5011'>0.83807E+02</wgt>
<wgt id='5012'>0.83291E+02</wgt>
<wgt id='5013'>0.83669E+02</wgt>
<wgt id='5014'>0.83456E+02</wgt>
<wgt id='5015'>0.83163E+02</wgt>
<wgt id='5016'>0.83163E+02</wgt>
<wgt id='5017'>0.83837E+02</wgt>
<wgt id='5018'>0.83347E+02</wgt>
<wgt id='5019'>0.83812E+02</wgt>
<wgt id='5020'>0.83177E+02</wgt>
<wgt id='5021'>0.83637E+02</wgt>
<wgt id='5022'>0.83398E+02</wgt>
<wgt id='5023'>0.83504E+02</wgt>
<wgt id='5024'>0.83640E+02</wgt>
<wgt id='5025'>0.83376E+02</wgt>
<wgt id='5026'>0.83730E+02</wgt>
<wgt id='5027'>0.83607E+02</wgt>
<wgt id='5028'>0.83375E+02</wgt>
<wgt id='5029'>0.84614E+02</wgt>
<wgt id='5030'>0.82944E+02</wgt>
<wgt id='5031'>0.82916E+02</wgt>
<wgt id='5032'>0.85474E+02</wgt>
<wgt id='5033'>0.83448E+02</wgt>
<wgt id='5034'>0.83648E+02</wgt>
<wgt id='5035'>0.83557E+02</wgt>
<wgt id='5036'>0.83528E+02</wgt>
<wgt id='5037'>0.83234E+02</wgt>
<wgt id='5038'>0.83719E+02</wgt>
<wgt id='5039'>0.83705E+02</wgt>
<wgt id='5040'>0.83147E+02</wgt>
<wgt id='5041'>0.83086E+02</wgt>
<wgt id='5042'>0.84046E+02</wgt>
<wgt id='5043'>0.83725E+02</wgt>
<wgt id='5044'>0.83414E+02</wgt>
<wgt id='5045'>0.84068E+02</wgt>
<wgt id='5046'>0.82536E+02</wgt>
<wgt id='5047'>0.83666E+02</wgt>
<wgt id='5048'>0.83014E+02</wgt>
<wgt id='5049'>0.83410E+02</wgt>
<wgt id='5050'>0.83852E+02</wgt>
<wgt id='5051'>0.83838E+02</wgt>
<wgt id='5052'>0.83347E+02</wgt>
<wgt id='5053'>0.83901E+02</wgt>
<wgt id='5054'>0.83653E+02</wgt>
<wgt id='5055'>0.83575E+02</wgt>
<wgt id='5056'>0.83632E+02</wgt>
<wgt id='5057'>0.83140E+02</wgt>
<wgt id='5058'>0.83828E+02</wgt>
<wgt id='5059'>0.83337E+02</wgt>
<wgt id='5060'>0.83662E+02</wgt>
<wgt id='5061'>0.83723E+02</wgt>
<wgt id='5062'>0.83880E+02</wgt>
<wgt id='5063'>0.83751E+02</wgt>
<wgt id='5064'>0.83743E+02</wgt>
<wgt id='5100'>0.83544E+02</wgt>
<wgt id='5101'>0.83534E+02</wgt>
<wgt id='6000'>0.83170E+02</wgt>
<wgt id='6001'>0.82712E+02</wgt>
<wgt id='6002'>0.82274E+02</wgt>
<wgt id='6003'>0.82844E+02</wgt>
<wgt id='6004'>0.83714E+02</wgt>
<wgt id='6005'>0.82536E+02</wgt>
<wgt id='6006'>0.83202E+02</wgt>
<wgt id='6007'>0.82423E+02</wgt>
<wgt id='6008'>0.83523E+02</wgt>
<wgt id='6009'>0.83059E+02</wgt>
<wgt id='6010'>0.83676E+02</wgt>
<wgt id='6011'>0.83154E+02</wgt>
<wgt id='6012'>0.83382E+02</wgt>
<wgt id='6013'>0.82703E+02</wgt>
<wgt id='6014'>0.82716E+02</wgt>
<wgt id='6015'>0.82382E+02</wgt>
<wgt id='6016'>0.83693E+02</wgt>
<wgt id='6017'>0.82754E+02</wgt>
<wgt id='6018'>0.82428E+02</wgt>
<wgt id='6019'>0.83406E+02</wgt>
<wgt id='6020'>0.83365E+02</wgt>
<wgt id='6021'>0.83086E+02</wgt>
<wgt id='6022'>0.83619E+02</wgt>
<wgt id='6023'>0.83126E+02</wgt>
<wgt id='6024'>0.83309E+02</wgt>
<wgt id='6025'>0.83730E+02</wgt>
<wgt id='6026'>0.82974E+02</wgt>
<wgt id='6027'>0.83275E+02</wgt>
<wgt id='6028'>0.82575E+02</wgt>
<wgt id='6029'>0.82894E+02</wgt>
<wgt id='6030'>0.82609E+02</wgt>
<wgt id='6031'>0.82883E+02</wgt>
<wgt id='6032'>0.83159E+02</wgt>
<wgt id='6033'>0.83089E+02</wgt>
<wgt id='6034'>0.83591E+02</wgt>
<wgt id='6035'>0.83233E+02</wgt>
<wgt id='6036'>0.83973E+02</wgt>
<wgt id='6037'>0.83146E+02</wgt>
<wgt id='6038'>0.83030E+02</wgt>
<wgt id='6039'>0.83489E+02</wgt>
<wgt id='6040'>0.83211E+02</wgt>
<wgt id='6041'>0.81970E+02</wgt>
<wgt id='6042'>0.84239E+02</wgt>
<wgt id='7000'>0.79683E+02</wgt>
<wgt id='7001'>0.79174E+02</wgt>
<wgt id='7002'>0.79326E+02</wgt>
<wgt id='7003'>0.79244E+02</wgt>
<wgt id='7004'>0.79256E+02</wgt>
<wgt id='7005'>0.79291E+02</wgt>
<wgt id='7006'>0.79209E+02</wgt>
<wgt id='7007'>0.79656E+02</wgt>
<wgt id='7008'>0.78855E+02</wgt>
<wgt id='7009'>0.78914E+02</wgt>
<wgt id='7010'>0.79599E+02</wgt>
<wgt id='7011'>0.79485E+02</wgt>
<wgt id='7012'>0.79024E+02</wgt>
<wgt id='7013'>0.79241E+02</wgt>
<wgt id='7014'>0.79256E+02</wgt>
<wgt id='7015'>0.79451E+02</wgt>
<wgt id='7016'>0.78912E+02</wgt>
<wgt id='7017'>0.79062E+02</wgt>
<wgt id='7018'>0.79449E+02</wgt>
<wgt id='7019'>0.79735E+02</wgt>
<wgt id='7020'>0.78787E+02</wgt>
<wgt id='7021'>0.80624E+02</wgt>
<wgt id='7022'>0.77958E+02</wgt>
<wgt id='7023'>0.78028E+02</wgt>
<wgt id='7024'>0.80486E+02</wgt>
<wgt id='7025'>0.77666E+02</wgt>
<wgt id='7026'>0.80794E+02</wgt>
<wgt id='7027'>0.78534E+02</wgt>
<wgt id='7028'>0.80042E+02</wgt>
<wgt id='8000'>0.80425E+02</wgt>
<wgt id='8001'>0.80419E+02</wgt>
<wgt id='8002'>0.80448E+02</wgt>
<wgt id='8003'>0.80424E+02</wgt>
<wgt id='8004'>0.80423E+02</wgt>
<wgt id='8005'>0.80281E+02</wgt>
<wgt id='8006'>0.80525E+02</wgt>
<wgt id='8007'>0.80592E+02</wgt>
<wgt id='8008'>0.80577E+02</wgt>
<wgt id='8009'>0.80728E+02</wgt>
<wgt id='8010'>0.80335E+02</wgt>
<wgt id='8011'>0.80465E+02</wgt>
<wgt id='8012'>0.80160E+02</wgt>
<wgt id='8013'>0.80267E+02</wgt>
<wgt id='8014'>0.80627E+02</wgt>
<wgt id='8015'>0.80373E+02</wgt>
<wgt id='8016'>0.80558E+02</wgt>
<wgt id='8017'>0.80574E+02</wgt>
<wgt id='8018'>0.80750E+02</wgt>
<wgt id='8019'>0.80186E+02</wgt>
<wgt id='8020'>0.80854E+02</wgt>
<wgt id='8021'>0.80236E+02</wgt>
<wgt id='8022'>0.81201E+02</wgt>
<wgt id='8023'>0.80051E+02</wgt>
<wgt id='8024'>0.79731E+02</wgt>
<wgt id='8025'>0.79845E+02</wgt>
<wgt id='8026'>0.80374E+02</wgt>
<wgt id='8027'>0.80619E+02</wgt>
<wgt id='8028'>0.80427E+02</wgt>
<wgt id='8029'>0.82662E+02</wgt>
<wgt id='3000'>0.81104E+02</wgt>
<wgt id='3001'>0.83386E+02</wgt>
<wgt id='3002'>0.79934E+02</wgt>
<wgt id='3003'>0.80932E+02</wgt>
<wgt id='3004'>0.81602E+02</wgt>
<wgt id='3005'>0.81704E+02</wgt>
<wgt id='3006'>0.81789E+02</wgt>
<wgt id='3007'>0.78666E+02</wgt>
<wgt id='3008'>0.78212E+02</wgt>
<wgt id='3009'>0.80076E+02</wgt>
<wgt id='3010'>0.86451E+02</wgt>
<wgt id='3011'>0.82776E+02</wgt>
<wgt id='3012'>0.79611E+02</wgt>
<wgt id='3013'>0.81709E+02</wgt>
<wgt id='3014'>0.80603E+02</wgt>
<wgt id='3015'>0.80404E+02</wgt>
<wgt id='3016'>0.80156E+02</wgt>
<wgt id='3017'>0.81097E+02</wgt>
<wgt id='3018'>0.79089E+02</wgt>
<wgt id='3019'>0.79916E+02</wgt>
<wgt id='3020'>0.80779E+02</wgt>
<wgt id='3021'>0.80682E+02</wgt>
<wgt id='3022'>0.79532E+02</wgt>
<wgt id='3023'>0.79374E+02</wgt>
<wgt id='3024'>0.80943E+02</wgt>
<wgt id='3025'>0.78960E+02</wgt>
<wgt id='3026'>0.80665E+02</wgt>
<wgt id='3027'>0.83322E+02</wgt>
<wgt id='3028'>0.78157E+02</wgt>
<wgt id='3029'>0.81355E+02</wgt>
<wgt id='3030'>0.80635E+02</wgt>
<wgt id='3031'>0.83614E+02</wgt>
<wgt id='3032'>0.80900E+02</wgt>
<wgt id='3033'>0.79577E+02</wgt>
<wgt id='3034'>0.81141E+02</wgt>
<wgt id='3035'>0.84073E+02</wgt>
<wgt id='3036'>0.81921E+02</wgt>
<wgt id='3037'>0.81070E+02</wgt>
<wgt id='3038'>0.81612E+02</wgt>
<wgt id='3039'>0.81349E+02</wgt>
<wgt id='3040'>0.80053E+02</wgt>
<wgt id='3041'>0.80937E+02</wgt>
<wgt id='3042'>0.80441E+02</wgt>
<wgt id='3043'>0.82096E+02</wgt>
<wgt id='3044'>0.81673E+02</wgt>
<wgt id='3045'>0.80744E+02</wgt>
<wgt id='3046'>0.81188E+02</wgt>
<wgt id='3047'>0.82054E+02</wgt>
<wgt id='3048'>0.82181E+02</wgt>
<wgt id='3049'>0.82605E+02</wgt>
<wgt id='3050'>0.83675E+02</wgt>
<wgt id='3051'>0.81074E+02</wgt>
<wgt id='3052'>0.79929E+02</wgt>
<wgt id='3053'>0.82522E+02</wgt>
<wgt id='3054'>0.79508E+02</wgt>
<wgt id='3055'>0.80637E+02</wgt>
<wgt id='3056'>0.80461E+02</wgt>
<wgt id='3057'>0.80251E+02</wgt>
<wgt id='3058'>0.82824E+02</wgt>
<wgt id='3059'>0.79116E+02</wgt>
<wgt id='3060'>0.81031E+02</wgt>
<wgt id='3061'>0.81664E+02</wgt>
<wgt id='3062'>0.81536E+02</wgt>
<wgt id='3063'>0.82042E+02</wgt>
<wgt id='3064'>0.82180E+02</wgt>
<wgt id='3065'>0.79505E+02</wgt>
<wgt id='3066'>0.81159E+02</wgt>
<wgt id='3067'>0.79849E+02</wgt>
<wgt id='3068'>0.80354E+02</wgt>
<wgt id='3069'>0.80632E+02</wgt>
<wgt id='3070'>0.82396E+02</wgt>
<wgt id='3071'>0.81512E+02</wgt>
<wgt id='3072'>0.82414E+02</wgt>
<wgt id='3073'>0.80305E+02</wgt>
<wgt id='3074'>0.80149E+02</wgt>
<wgt id='3075'>0.81157E+02</wgt>
<wgt id='3076'>0.83586E+02</wgt>
<wgt id='3077'>0.81854E+02</wgt>
<wgt id='3078'>0.80793E+02</wgt>
<wgt id='3079'>0.81498E+02</wgt>
<wgt id='3080'>0.84290E+02</wgt>
<wgt id='3081'>0.81725E+02</wgt>
<wgt id='3082'>0.80156E+02</wgt>
<wgt id='3083'>0.81222E+02</wgt>
<wgt id='3084'>0.79574E+02</wgt>
<wgt id='3085'>0.81114E+02</wgt>
<wgt id='3086'>0.82687E+02</wgt>
<wgt id='3087'>0.80029E+02</wgt>
<wgt id='3088'>0.81163E+02</wgt>
<wgt id='3089'>0.81659E+02</wgt>
<wgt id='3090'>0.79494E+02</wgt>
<wgt id='3091'>0.79157E+02</wgt>
<wgt id='3092'>0.82531E+02</wgt>
<wgt id='3093'>0.81065E+02</wgt>
<wgt id='3094'>0.81413E+02</wgt>
<wgt id='3095'>0.80052E+02</wgt>
<wgt id='3096'>0.80147E+02</wgt>
<wgt id='3097'>0.85441E+02</wgt>
<wgt id='3098'>0.80602E+02</wgt>
<wgt id='3099'>0.79043E+02</wgt>
<wgt id='3100'>0.79981E+02</wgt>
<wgt id='3200'>0.79978E+02</wgt>
<wgt id='3201'>0.79404E+02</wgt>
<wgt id='3202'>0.78633E+02</wgt>
<wgt id='3203'>0.80641E+02</wgt>
<wgt id='3204'>0.80217E+02</wgt>
<wgt id='3205'>0.80297E+02</wgt>
<wgt id='3206'>0.80709E+02</wgt>
<wgt id='3207'>0.80217E+02</wgt>
<wgt id='3208'>0.80064E+02</wgt>
<wgt id='3209'>0.80034E+02</wgt>
<wgt id='3210'>0.79951E+02</wgt>
<wgt id='3211'>0.79606E+02</wgt>
<wgt id='3212'>0.80175E+02</wgt>
<wgt id='3213'>0.80545E+02</wgt>
<wgt id='3214'>0.79431E+02</wgt>
<wgt id='3215'>0.79572E+02</wgt>
<wgt id='3216'>0.80772E+02</wgt>
<wgt id='3217'>0.80250E+02</wgt>
<wgt id='3218'>0.81058E+02</wgt>
<wgt id='3219'>0.79424E+02</wgt>
<wgt id='3220'>0.79265E+02</wgt>
<wgt id='3221'>0.79730E+02</wgt>
<wgt id='3222'>0.80528E+02</wgt>
<wgt id='3223'>0.80087E+02</wgt>
<wgt id='3224'>0.79574E+02</wgt>
<wgt id='3225'>0.80562E+02</wgt>
<wgt id='3226'>0.79502E+02</wgt>
<wgt id='3227'>0.79433E+02</wgt>
<wgt id='3228'>0.79862E+02</wgt>
<wgt id='3229'>0.81049E+02</wgt>
<wgt id='3230'>0.80330E+02</wgt>
<wgt id='3231'>0.80085E+02</wgt>
<wgt id='3232'>0.80306E+02</wgt>
<wgt id='3233'>0.79673E+02</wgt>
<wgt id='3234'>0.78466E+02</wgt>
<wgt id='3235'>0.79861E+02</wgt>
<wgt id='3236'>0.80928E+02</wgt>
<wgt id='3237'>0.80236E+02</wgt>
<wgt id='3238'>0.80431E+02</wgt>
<wgt id='3239'>0.79014E+02</wgt>
<wgt id='3240'>0.78334E+02</wgt>
<wgt id='3241'>0.80564E+02</wgt>
<wgt id='3242'>0.80625E+02</wgt>
<wgt id='3243'>0.81176E+02</wgt>
<wgt id='3244'>0.80770E+02</wgt>
<wgt id='3245'>0.80991E+02</wgt>
<wgt id='3246'>0.78664E+02</wgt>
<wgt id='3247'>0.78267E+02</wgt>
<wgt id='3248'>0.79624E+02</wgt>
<wgt id='3249'>0.79414E+02</wgt>
<wgt id='3250'>0.79335E+02</wgt>
<wgt id='3251'>0.79444E+02</wgt>
<wgt id='3252'>0.81264E+02</wgt>
<wgt id='3253'>0.81244E+02</wgt>
<wgt id='3254'>0.79906E+02</wgt>
<wgt id='3255'>0.78531E+02</wgt>
<wgt id='3256'>0.79508E+02</wgt>
<wgt id='3257'>0.79461E+02</wgt>
<wgt id='3258'>0.78891E+02</wgt>
<wgt id='3259'>0.78724E+02</wgt>
<wgt id='3260'>0.80299E+02</wgt>
<wgt id='3261'>0.78988E+02</wgt>
<wgt id='3262'>0.81322E+02</wgt>
<wgt id='3263'>0.79938E+02</wgt>
<wgt id='3264'>0.81043E+02</wgt>
<wgt id='3265'>0.81044E+02</wgt>
<wgt id='3266'>0.80236E+02</wgt>
<wgt id='3267'>0.80203E+02</wgt>
<wgt id='3268'>0.78375E+02</wgt>
<wgt id='3269'>0.79304E+02</wgt>
<wgt id='3270'>0.81711E+02</wgt>
<wgt id='3271'>0.79483E+02</wgt>
<wgt id='3272'>0.80000E+02</wgt>
<wgt id='3273'>0.80057E+02</wgt>
<wgt id='3274'>0.80131E+02</wgt>
<wgt id='3275'>0.81048E+02</wgt>
<wgt id='3276'>0.79017E+02</wgt>
<wgt id='3277'>0.80136E+02</wgt>
<wgt id='3278'>0.81008E+02</wgt>
<wgt id='3279'>0.80253E+02</wgt>
<wgt id='3280'>0.79620E+02</wgt>
<wgt id='3281'>0.80881E+02</wgt>
<wgt id='3282'>0.79748E+02</wgt>
<wgt id='3283'>0.80637E+02</wgt>
<wgt id='3284'>0.78715E+02</wgt>
<wgt id='3285'>0.80309E+02</wgt>
<wgt id='3286'>0.78914E+02</wgt>
<wgt id='3287'>0.82035E+02</wgt>
<wgt id='3288'>0.78728E+02</wgt>
<wgt id='3289'>0.80710E+02</wgt>
<wgt id='3290'>0.78814E+02</wgt>
<wgt id='3291'>0.79852E+02</wgt>
<wgt id='3292'>0.79894E+02</wgt>
<wgt id='3293'>0.79871E+02</wgt>
<wgt id='3294'>0.80494E+02</wgt>
<wgt id='3295'>0.79577E+02</wgt>
<wgt id='3296'>0.80419E+02</wgt>
<wgt id='3297'>0.80483E+02</wgt>
<wgt id='3298'>0.78488E+02</wgt>
<wgt id='3299'>0.80521E+02</wgt>
<wgt id='3300'>0.80700E+02</wgt>
<wgt id='3301'>0.78527E+02</wgt>
<wgt id='3302'>0.80757E+02</wgt>
<wgt id='3400'>0.79144E+02</wgt>
<wgt id='3401'>0.80111E+02</wgt>
<wgt id='3402'>0.77260E+02</wgt>
<wgt id='3403'>0.79976E+02</wgt>
<wgt id='3404'>0.80367E+02</wgt>
<wgt id='3405'>0.80039E+02</wgt>
<wgt id='3406'>0.79973E+02</wgt>
<wgt id='3407'>0.78813E+02</wgt>
<wgt id='3408'>0.79388E+02</wgt>
<wgt id='3409'>0.78598E+02</wgt>
<wgt id='3410'>0.79833E+02</wgt>
<wgt id='3411'>0.80263E+02</wgt>
<wgt id='3412'>0.79578E+02</wgt>
<wgt id='3413'>0.78837E+02</wgt>
<wgt id='3414'>0.79145E+02</wgt>
<wgt id='3415'>0.79340E+02</wgt>
<wgt id='3416'>0.78877E+02</wgt>
<wgt id='3417'>0.79844E+02</wgt>
<wgt id='3418'>0.78637E+02</wgt>
<wgt id='3419'>0.78836E+02</wgt>
<wgt id='3420'>0.78640E+02</wgt>
<wgt id='3421'>0.78392E+02</wgt>
<wgt id='3422'>0.78374E+02</wgt>
<wgt id='3423'>0.81377E+02</wgt>
<wgt id='3424'>0.79488E+02</wgt>
<wgt id='3425'>0.78341E+02</wgt>
<wgt id='3426'>0.78492E+02</wgt>
<wgt id='3427'>0.78232E+02</wgt>
<wgt id='3428'>0.78878E+02</wgt>
<wgt id='3429'>0.77929E+02</wgt>
<wgt id='3430'>0.78923E+02</wgt>
<wgt id='3431'>0.79746E+02</wgt>
<wgt id='3432'>0.80046E+02</wgt>
<wgt id='3433'>0.79245E+02</wgt>
<wgt id='3434'>0.80939E+02</wgt>
<wgt id='3435'>0.80315E+02</wgt>
<wgt id='3436'>0.79222E+02</wgt>
<wgt id='3437'>0.80740E+02</wgt>
<wgt id='3438'>0.78530E+02</wgt>
<wgt id='3439'>0.77429E+02</wgt>
<wgt id='3440'>0.79464E+02</wgt>
<wgt id='3441'>0.79700E+02</wgt>
<wgt id='3442'>0.79320E+02</wgt>
<wgt id='3443'>0.80254E+02</wgt>
<wgt id='3444'>0.78554E+02</wgt>
<wgt id='3445'>0.78350E+02</wgt>
<wgt id='3446'>0.79471E+02</wgt>
<wgt id='3447'>0.78818E+02</wgt>
<wgt id='3448'>0.80196E+02</wgt>
<wgt id='3449'>0.79124E+02</wgt>
<wgt id='3450'>0.78346E+02</wgt>
<wgt id='3451'>0.79727E+02</wgt>
<wgt id='3452'>0.78404E+02</wgt>
<wgt id='3453'>0.77617E+02</wgt>
<wgt id='3454'>0.79097E+02</wgt>
<wgt id='3455'>0.79660E+02</wgt>
<wgt id='3456'>0.79340E+02</wgt>
<wgt id='3457'>0.78767E+02</wgt>
<wgt id='3458'>0.78153E+02</wgt>
<wgt id='3459'>0.79561E+02</wgt>
<wgt id='3460'>0.78999E+02</wgt>
<wgt id='3461'>0.78547E+02</wgt>
<wgt id='3462'>0.79130E+02</wgt>
<wgt id='3463'>0.78269E+02</wgt>
<wgt id='3464'>0.79049E+02</wgt>
<wgt id='3465'>0.78964E+02</wgt>
<wgt id='3466'>0.80134E+02</wgt>
<wgt id='3467'>0.78837E+02</wgt>
<wgt id='3468'>0.78413E+02</wgt>
<wgt id='3469'>0.77495E+02</wgt>
<wgt id='3470'>0.78758E+02</wgt>
<wgt id='3471'>0.78336E+02</wgt>
<wgt id='3472'>0.77451E+02</wgt>
<wgt id='3473'>0.80996E+02</wgt>
<wgt id='3474'>0.78545E+02</wgt>
<wgt id='3475'>0.79373E+02</wgt>
<wgt id='3476'>0.79253E+02</wgt>
<wgt id='3477'>0.78096E+02</wgt>
<wgt id='3478'>0.79838E+02</wgt>
<wgt id='3479'>0.78568E+02</wgt>
<wgt id='3480'>0.79637E+02</wgt>
<wgt id='3481'>0.80408E+02</wgt>
<wgt id='3482'>0.79379E+02</wgt>
<wgt id='3483'>0.79177E+02</wgt>
<wgt id='3484'>0.78449E+02</wgt>
<wgt id='3485'>0.78243E+02</wgt>
<wgt id='3486'>0.77272E+02</wgt>
<wgt id='3487'>0.77978E+02</wgt>
<wgt id='3488'>0.79037E+02</wgt>
<wgt id='3489'>0.78150E+02</wgt>
<wgt id='3490'>0.80022E+02</wgt>
<wgt id='3491'>0.81055E+02</wgt>
<wgt id='3492'>0.78782E+02</wgt>
<wgt id='3493'>0.80920E+02</wgt>
<wgt id='3494'>0.77583E+02</wgt>
<wgt id='3495'>0.80444E+02</wgt>
<wgt id='3496'>0.77884E+02</wgt>
<wgt id='3497'>0.78891E+02</wgt>
<wgt id='3498'>0.80338E+02</wgt>
<wgt id='3499'>0.79534E+02</wgt>
<wgt id='3500'>0.81095E+02</wgt>
</rwgt>
</event>
<event>
     13 322200  8.11039E+01  7.70924E+01 -1.00000E+00  1.27405E-01
      21    -1     0     0   502   503  0.000000000E+00  0.000000000E+00  7.017269231E+01  7.017269231E+01  0.000000000E+00  0.00000E+00  9.000E+00
      21    -1     0     0   504   505  0.000000000E+00  0.000000000E+00 -9.259869109E+02  9.259869109E+02  0.000000000E+00  0.00000E+00  9.000E+00
       6     2     1     2   502     0 -1.014217678E+02 -7.101146943E+01 -3.757405148E+02  4.312335952E+02  1.716172352E+02  0.00000E+00  9.000E+00
      -6     2     1     2     0   505  4.018672777E+01  2.417662752E+01 -1.795995359E+02  2.547196926E+02  1.744323539E+02  0.00000E+00  9.000E+00
      21     1     1     2   504   503  6.123504001E+01  4.683484191E+01 -3.004741679E+02  3.102063154E+02  3.814697266E-06  0.00000E+00  9.000E+00
      24     2     3     3     0     0 -1.395643840E+02 -5.580992080E+01 -3.117328160E+02  3.550198473E+02  7.917562066E+01  0.00000E+00  9.000E+00
       5     1     3     3   502     0  3.814261624E+01 -1.520154863E+01 -6.400769881E+01  7.621374785E+01  5.060000000E+00  0.00000E+00 -1.000E+00
     -24     2     4     4     0     0  2.432706947E+01  6.216393280E+01 -4.453344876E+01  1.134291564E+02  8.016722906E+01  0.00000E+00  9.000E+00
      -5     1     4     4     0   505  1.585965830E+01 -3.798730528E+01 -1.350660871E+02  1.412905362E+02  5.060000000E+00  0.00000E+00  1.000E+00
     -15     1     6     6     0     0 -9.132143132E+01 -7.420086817E+01 -2.027785403E+02  2.344518432E+02  1.777000000E+00  0.00000E+00  1.000E+00
      16     1     6     6     0     0 -4.824295270E+01  1.839094736E+01 -1.089542757E+02  1.205680042E+02  0.000000000E+00  0.00000E+00 -1.000E+00
      15     1     8     8     0     0  1.827125346E+01  7.131644161E-01 -4.818947695E+01  5.157257725E+01  1.777000000E+00  0.00000E+00 -1.000E+00
     -16     1     8     8     0     0  6.055816012E+00  6.145076838E+01  3.656028195E+00  6.185657915E+01  0.000000000E+00  0.00000E+00  1.000E+00
#rwgt            1           1   869.21319850391615               10       34846           0
<rwgt>
<wgt id='1001'>0.81104E+02</wgt>
<wgt id='1002'>0.70918E+02</wgt>
<wgt id='1003'>0.91721E+02</wgt>
<wgt id='1004'>0.73076E+02</wgt>
<wgt id='1005'>0.64774E+02</wgt>
<wgt id='1006'>0.81686E+02</wgt>
<wgt id='1007'>0.89641E+02</wgt>
<wgt id='1008'>0.76853E+02</wgt>
<wgt id='1009'>0.10305E+03</wgt>
<wgt id='2000'>0.81104E+02</wgt>
<wgt id='2001'>0.80987E+02</wgt>
<wgt id='2002'>0.80979E+02</wgt>
<wgt id='2003'>0.81331E+02</wgt>
<wgt id='2004'>0.81259E+02</wgt>
<wgt id='2005'>0.81055E+02</wgt>
<wgt id='2006'>0.81281E+02</wgt>
<wgt id='2007'>0.81248E+02</wgt>
<wgt id='2008'>0.81263E+02</wgt>
<wgt id='2009'>0.81074E+02</wgt>
<wgt id='2010'>0.81070E+02</wgt>
<wgt id='2011'>0.81061E+02</wgt>
<wgt id='2012'>0.81147E+02</wgt>
<wgt id='2013'>0.81112E+02</wgt>
<wgt id='2014'>0.81159E+02</wgt>
<wgt id='2015'>0.81161E+02</wgt>
<wgt id='2016'>0.81103E+02</wgt>
<wgt id='2017'>0.81211E+02</wgt>
<wgt id='2018'>0.81171E+02</wgt>
<wgt id='2019'>0.80691E+02</wgt>
<wgt id='2020'>0.81223E+02</wgt>
<wgt id='2021'>0.81004E+02</wgt>
<wgt id='2022'>0.81199E+02</wgt>
<wgt id='2023'>0.81272E+02</wgt>
<wgt id='2024'>0.80920E+02</wgt>
<wgt id='2025'>0.81055E+02</wgt>
<wgt id='2026'>0.80966E+02</wgt>
<wgt id='2027'>0.80930E+02</wgt>
<wgt id='2028'>0.81176E+02</wgt>
<wgt id='2029'>0.80808E+02</wgt>
<wgt id='2030'>0.81148E+02</wgt>
<wgt id='2031'>0.80805E+02</wgt>
<wgt id='2032'>0.81144E+02</wgt>
<wgt id='2033'>0.80985E+02</wgt>
<wgt id='2034'>0.80923E+02</wgt>
<wgt id='2035'>0.81106E+02</wgt>
<wgt id='2036'>0.81270E+02</wgt>
<wgt id='2037'>0.81090E+02</wgt>
<wgt id='2038'>0.81036E+02</wgt>
<wgt id='2039'>0.81064E+02</wgt>
<wgt id='2040'>0.81072E+02</wgt>
<wgt id='2041'>0.81055E+02</wgt>
<wgt id='2042'>0.81203E+02</wgt>
<wgt id='2043'>0.81036E+02</wgt>
<wgt id='2044'>0.81173E+02</wgt>
<wgt id='2045'>0.81089E+02</wgt>
<wgt id='2046'>0.81099E+02</wgt>
<wgt id='2047'>0.81103E+02</wgt>
<wgt id='2048'>0.81090E+02</wgt>
<wgt id='2049'>0.81036E+02</wgt>
<wgt id='2050'>0.81074E+02</wgt>
<wgt id='2051'>0.81076E+02</wgt>
<wgt id='2052'>0.81168E+02</wgt>
<wgt id='2053'>0.81097E+02</wgt>
<wgt id='2054'>0.81098E+02</wgt>
<wgt id='2055'>0.81115E+02</wgt>
<wgt id='2056'>0.81046E+02</wgt>
<wgt id='2057'>0.81131E+02</wgt>
<wgt id='2058'>0.81125E+02</wgt>
<wgt id='2059'>0.81089E+02</wgt>
<wgt id='2060'>0.81103E+02</wgt>
<wgt id='2061'>0.81085E+02</wgt>
<wgt id='2062'>0.81161E+02</wgt>
<wgt id='2063'>0.81118E+02</wgt>
<wgt id='2064'>0.81115E+02</wgt>
<wgt id='2065'>0.81173E+02</wgt>
<wgt id='2066'>0.81090E+02</wgt>
<wgt id='2067'>0.81114E+02</wgt>
<wgt id='2068'>0.81124E+02</wgt>
<wgt id='2069'>0.81107E+02</wgt>
<wgt id='2070'>0.81110E+02</wgt>
<wgt id='2071'>0.81097E+02</wgt>
<wgt id='2072'>0.81099E+02</wgt>
<wgt id='2073'>0.81116E+02</wgt>
<wgt id='2074'>0.81094E+02</wgt>
<wgt id='2075'>0.81088E+02</wgt>
<wgt id='2076'>0.81086E+02</wgt>
<wgt id='2077'>0.81150E+02</wgt>
<wgt id='2078'>0.81112E+02</wgt>
<wgt id='2079'>0.81087E+02</wgt>
<wgt id='2080'>0.81117E+02</wgt>
<wgt id='2081'>0.81094E+02</wgt>
<wgt id='2082'>0.81114E+02</wgt>
<wgt id='2083'>0.81133E+02</wgt>
<wgt id='2084'>0.81109E+02</wgt>
<wgt id='2085'>0.81108E+02</wgt>
<wgt id='2086'>0.81089E+02</wgt>
<wgt id='2087'>0.81117E+02</wgt>
<wgt id='2088'>0.81099E+02</wgt>
<wgt id='2089'>0.81093E+02</wgt>
<wgt id='2090'>0.81117E+02</wgt>
<wgt id='2091'>0.81106E+02</wgt>
<wgt id='2092'>0.81124E+02</wgt>
<wgt id='2093'>0.81087E+02</wgt>
<wgt id='2094'>0.81106E+02</wgt>
<wgt id='2095'>0.81123E+02</wgt>
<wgt id='2096'>0.81094E+02</wgt>
<wgt id='2097'>0.81116E+02</wgt>
<wgt id='2098'>0.81100E+02</wgt>
<wgt id='2099'>0.81116E+02</wgt>
<wgt id='2100'>0.81104E+02</wgt>
<wgt id='2101'>0.79166E+02</wgt>
<wgt id='2102'>0.83233E+02</wgt>
<wgt id='2200'>0.81170E+02</wgt>
<wgt id='2201'>0.71376E+02</wgt>
<wgt id='2202'>0.73371E+02</wgt>
<wgt id='2203'>0.75131E+02</wgt>
<wgt id='2204'>0.76874E+02</wgt>
<wgt id='2205'>0.80204E+02</wgt>
<wgt id='2206'>0.82260E+02</wgt>
<wgt id='2207'>0.85155E+02</wgt>
<wgt id='2208'>0.87156E+02</wgt>
<wgt id='2300'>0.84751E+02</wgt>
<wgt id='2301'>0.84895E+02</wgt>
<wgt id='2302'>0.84583E+02</wgt>
<wgt id='2303'>0.84771E+02</wgt>
<wgt id='2304'>0.84997E+02</wgt>
<wgt id='2305'>0.84800E+02</wgt>
<wgt id='2306'>0.84730E+02</wgt>
<wgt id='2307'>0.84791E+02</wgt>
<wgt id='2308'>0.84678E+02</wgt>
<wgt id='2309'>0.84789E+02</wgt>
<wgt id='2310'>0.84600E+02</wgt>
<wgt id='2311'>0.84714E+02</wgt>
<wgt id='2312'>0.84881E+02</wgt>
<wgt id='2313'>0.84670E+02</wgt>
<wgt id='2314'>0.84754E+02</wgt>
<wgt id='2315'>0.84775E+02</wgt>
<wgt id='2316'>0.84761E+02</wgt>
<wgt id='2317'>0.84724E+02</wgt>
<wgt id='2318'>0.84739E+02</wgt>
<wgt id='2319'>0.84915E+02</wgt>
<wgt id='2320'>0.84962E+02</wgt>
<wgt id='2321'>0.84957E+02</wgt>
<wgt id='2322'>0.84751E+02</wgt>
<wgt id='2323'>0.84833E+02</wgt>
<wgt id='2324'>0.84880E+02</wgt>
<wgt id='2325'>0.84866E+02</wgt>
<wgt id='2326'>0.84567E+02</wgt>
<wgt id='2327'>0.84814E+02</wgt>
<wgt id='2328'>0.84774E+02</wgt>
<wgt id='2329'>0.84524E+02</wgt>
<wgt id='2330'>0.85278E+02</wgt>
<wgt id='2331'>0.85014E+02</wgt>
<wgt id='2332'>0.84668E+02</wgt>
<wgt id='2333'>0.84839E+02</wgt>
<wgt id='2334'>0.84701E+02</wgt>
<wgt id='2335'>0.85091E+02</wgt>
<wgt id='2336'>0.84881E+02</wgt>
<wgt id='2337'>0.84724E+02</wgt>
<wgt id='2338'>0.84783E+02</wgt>
<wgt id='2339'>0.84896E+02</wgt>
<wgt id='2340'>0.84630E+02</wgt>
<wgt id='2341'>0.84762E+02</wgt>
<wgt id='2342'>0.84638E+02</wgt>
<wgt id='2343'>0.84582E+02</wgt>
<wgt id='2344'>0.84854E+02</wgt>
<wgt id='2345'>0.84842E+02</wgt>
<wgt id='2346'>0.84880E+02</wgt>
<wgt id='2347'>0.84741E+02</wgt>
<wgt id='2348'>0.84761E+02</wgt>
<wgt id='2349'>0.84704E+02</wgt>
<wgt id='2350'>0.84643E+02</wgt>
<wgt id='2351'>0.84921E+02</wgt>
<wgt id='2352'>0.84710E+02</wgt>
<wgt id='2353'>0.84745E+02</wgt>
<wgt id='2354'>0.84768E+02</wgt>
<wgt id='2355'>0.84730E+02</wgt>
<wgt id='2356'>0.84777E+02</wgt>
<wgt id='2357'>0.84759E+02</wgt>
<wgt id='2358'>0.84693E+02</wgt>
<wgt id='2359'>0.84768E+02</wgt>
<wgt id='2360'>0.84790E+02</wgt>
<wgt id='2361'>0.84825E+02</wgt>
<wgt id='2362'>0.84775E+02</wgt>
<wgt id='2363'>0.84765E+02</wgt>
<wgt id='2364'>0.84738E+02</wgt>
<wgt id='2365'>0.84751E+02</wgt>
<wgt id='2366'>0.84778E+02</wgt>
<wgt id='2367'>0.84690E+02</wgt>
<wgt id='2368'>0.84762E+02</wgt>
<wgt id='2369'>0.84691E+02</wgt>
<wgt id='2370'>0.84707E+02</wgt>
<wgt id='2371'>0.84744E+02</wgt>
<wgt id='2372'>0.84798E+02</wgt>
<wgt id='2373'>0.84747E+02</wgt>
<wgt id='2374'>0.84781E+02</wgt>
<wgt id='2375'>0.84777E+02</wgt>
<wgt id='2376'>0.84757E+02</wgt>
<wgt id='2377'>0.84740E+02</wgt>
<wgt id='2378'>0.84788E+02</wgt>
<wgt id='2379'>0.84730E+02</wgt>
<wgt id='2380'>0.84721E+02</wgt>
<wgt id='2381'>0.84734E+02</wgt>
<wgt id='2382'>0.84738E+02</wgt>
<wgt id='2383'>0.84749E+02</wgt>
<wgt id='2384'>0.84729E+02</wgt>
<wgt id='2385'>0.84776E+02</wgt>
<wgt id='2386'>0.84763E+02</wgt>
<wgt id='2387'>0.84739E+02</wgt>
<wgt id='2388'>0.84731E+02</wgt>
<wgt id='2389'>0.84758E+02</wgt>
<wgt id='2390'>0.84758E+02</wgt>
<wgt id='2391'>0.84743E+02</wgt>
<wgt id='2392'>0.84740E+02</wgt>
<wgt id='2393'>0.84758E+02</wgt>
<wgt id='2394'>0.84761E+02</wgt>
<wgt id='2395'>0.84756E+02</wgt>
<wgt id='2396'>0.84732E+02</wgt>
<wgt id='2397'>0.84732E+02</wgt>
<wgt id='2398'>0.84733E+02</wgt>
<wgt id='2399'>0.84760E+02</wgt>
<wgt id='2400'>0.84761E+02</wgt>
<wgt id='2401'>0.82637E+02</wgt>
<wgt id='2402'>0.86853E+02</wgt>
<wgt id='2500'>0.81146E+02</wgt>
<wgt id='2501'>0.85792E+02</wgt>
<wgt id='2600'>0.79141E+02</wgt>
<wgt id='2601'>0.78981E+02</wgt>
<wgt id='2602'>0.79242E+02</wgt>
<wgt id='2603'>0.79114E+02</wgt>
<wgt id='2604'>0.79248E+02</wgt>
<wgt id='2605'>0.79064E+02</wgt>
<wgt id='2606'>0.79100E+02</wgt>
<wgt id='2607'>0.79205E+02</wgt>
<wgt id='2608'>0.79186E+02</wgt>
<wgt id='2609'>0.79083E+02</wgt>
<wgt id='2610'>0.79093E+02</wgt>
<wgt id='2611'>0.79101E+02</wgt>
<wgt id='2612'>0.79233E+02</wgt>
<wgt id='2613'>0.79119E+02</wgt>
<wgt id='2614'>0.79089E+02</wgt>
<wgt id='2615'>0.78969E+02</wgt>
<wgt id='2616'>0.79143E+02</wgt>
<wgt id='2617'>0.78969E+02</wgt>
<wgt id='2618'>0.79015E+02</wgt>
<wgt id='2619'>0.79207E+02</wgt>
<wgt id='2620'>0.79089E+02</wgt>
<wgt id='2621'>0.79175E+02</wgt>
<wgt id='2622'>0.79399E+02</wgt>
<wgt id='2623'>0.79138E+02</wgt>
<wgt id='2624'>0.79137E+02</wgt>
<wgt id='2625'>0.79087E+02</wgt>
<wgt id='2626'>0.79122E+02</wgt>
<wgt id='2627'>0.79139E+02</wgt>
<wgt id='2628'>0.79154E+02</wgt>
<wgt id='2629'>0.79155E+02</wgt>
<wgt id='2630'>0.79185E+02</wgt>
<wgt id='2631'>0.79047E+02</wgt>
<wgt id='2632'>0.79155E+02</wgt>
<wgt id='2633'>0.79101E+02</wgt>
<wgt id='2634'>0.79077E+02</wgt>
<wgt id='2635'>0.79131E+02</wgt>
<wgt id='2636'>0.79127E+02</wgt>
<wgt id='2637'>0.79154E+02</wgt>
<wgt id='2638'>0.79174E+02</wgt>
<wgt id='2639'>0.79142E+02</wgt>
<wgt id='2640'>0.79131E+02</wgt>
<wgt id='2641'>0.79166E+02</wgt>
<wgt id='2642'>0.79156E+02</wgt>
<wgt id='2643'>0.79140E+02</wgt>
<wgt id='2644'>0.79134E+02</wgt>
<wgt id='2645'>0.79142E+02</wgt>
<wgt id='2646'>0.79160E+02</wgt>
<wgt id='2647'>0.79138E+02</wgt>
<wgt id='2648'>0.79136E+02</wgt>
<wgt id='2649'>0.79141E+02</wgt>
<wgt id='2650'>0.79142E+02</wgt>
<wgt id='2651'>0.77858E+02</wgt>
<wgt id='2652'>0.80275E+02</wgt>
<wgt id='2700'>0.76694E+02</wgt>
<wgt id='2701'>0.77858E+02</wgt>
<wgt id='2702'>0.78557E+02</wgt>
<wgt id='2703'>0.79693E+02</wgt>
<wgt id='2704'>0.80275E+02</wgt>
<wgt id='2705'>0.81412E+02</wgt>
<wgt id='2800'>0.80326E+02</wgt>
<wgt id='4000'>0.80528E+02</wgt>
<wgt id='4001'>0.80783E+02</wgt>
<wgt id='4002'>0.80431E+02</wgt>
<wgt id='4003'>0.80647E+02</wgt>
<wgt id='4004'>0.80294E+02</wgt>
<wgt id='4005'>0.80284E+02</wgt>
<wgt id='4006'>0.80778E+02</wgt>
<wgt id='4007'>0.81306E+02</wgt>
<wgt id='4008'>0.79769E+02</wgt>
<wgt id='4009'>0.80669E+02</wgt>
<wgt id='4010'>0.80352E+02</wgt>
<wgt id='4011'>0.80854E+02</wgt>
<wgt id='4012'>0.80183E+02</wgt>
<wgt id='4013'>0.80771E+02</wgt>
<wgt id='4014'>0.80341E+02</wgt>
<wgt id='4015'>0.80154E+02</wgt>
<wgt id='4016'>0.80935E+02</wgt>
<wgt id='4017'>0.80479E+02</wgt>
<wgt id='4018'>0.80604E+02</wgt>
<wgt id='4019'>0.80867E+02</wgt>
<wgt id='4020'>0.80000E+02</wgt>
<wgt id='4021'>0.80618E+02</wgt>
<wgt id='4022'>0.80351E+02</wgt>
<wgt id='4023'>0.80496E+02</wgt>
<wgt id='4024'>0.80689E+02</wgt>
<wgt id='4025'>0.80696E+02</wgt>
<wgt id='4026'>0.80157E+02</wgt>
<wgt id='4027'>0.80607E+02</wgt>
<wgt id='4028'>0.80446E+02</wgt>
<wgt id='4029'>0.80436E+02</wgt>
<wgt id='4030'>0.80080E+02</wgt>
<wgt id='4031'>0.80328E+02</wgt>
<wgt id='4032'>0.80794E+02</wgt>
<wgt id='4033'>0.80683E+02</wgt>
<wgt id='4034'>0.80157E+02</wgt>
<wgt id='4035'>0.81223E+02</wgt>
<wgt id='4036'>0.79950E+02</wgt>
<wgt id='4037'>0.81941E+02</wgt>
<wgt id='4038'>0.79424E+02</wgt>
<wgt id='4039'>0.81869E+02</wgt>
<wgt id='4040'>0.79171E+02</wgt>
<wgt id='4041'>0.80691E+02</wgt>
<wgt id='4042'>0.80283E+02</wgt>
<wgt id='4043'>0.80050E+02</wgt>
<wgt id='4044'>0.80317E+02</wgt>
<wgt id='4045'>0.81608E+02</wgt>
<wgt id='4046'>0.79972E+02</wgt>
<wgt id='4047'>0.80027E+02</wgt>
<wgt id='4048'>0.80730E+02</wgt>
<wgt id='4049'>0.80501E+02</wgt>
<wgt id='4050'>0.80500E+02</wgt>
<wgt id='4051'>0.81437E+02</wgt>
<wgt id='4052'>0.79746E+02</wgt>
<wgt id='4053'>0.80777E+02</wgt>
<wgt id='4054'>0.79858E+02</wgt>
<wgt id='4055'>0.80861E+02</wgt>
<wgt id='4056'>0.80145E+02</wgt>
<wgt id='4057'>0.79842E+02</wgt>
<wgt id='4058'>0.81007E+02</wgt>
<wgt id='4100'>0.81162E+02</wgt>
<wgt id='4101'>0.80847E+02</wgt>
<wgt id='4102'>0.80202E+02</wgt>
<wgt id='4103'>0.79866E+02</wgt>
<wgt id='4200'>0.78328E+02</wgt>
<wgt id='4201'>0.78342E+02</wgt>
<wgt id='4202'>0.78451E+02</wgt>
<wgt id='4203'>0.77851E+02</wgt>
<wgt id='4204'>0.78669E+02</wgt>
<wgt id='4205'>0.78278E+02</wgt>
<wgt id='4206'>0.78488E+02</wgt>
<wgt id='4207'>0.78414E+02</wgt>
<wgt id='4208'>0.78256E+02</wgt>
<wgt id='4209'>0.78311E+02</wgt>
<wgt id='4210'>0.78392E+02</wgt>
<wgt id='4211'>0.79149E+02</wgt>
<wgt id='4212'>0.77670E+02</wgt>
<wgt id='4213'>0.78490E+02</wgt>
<wgt id='4214'>0.78048E+02</wgt>
<wgt id='4215'>0.78338E+02</wgt>
<wgt id='4216'>0.78180E+02</wgt>
<wgt id='4217'>0.78079E+02</wgt>
<wgt id='4218'>0.78492E+02</wgt>
<wgt id='4219'>0.77544E+02</wgt>
<wgt id='4220'>0.79039E+02</wgt>
<wgt id='4221'>0.77750E+02</wgt>
<wgt id='4222'>0.78990E+02</wgt>
<wgt id='4223'>0.78408E+02</wgt>
<wgt id='4224'>0.77902E+02</wgt>
<wgt id='4225'>0.77172E+02</wgt>
<wgt id='4226'>0.79438E+02</wgt>
<wgt id='4227'>0.78774E+02</wgt>
<wgt id='4228'>0.77938E+02</wgt>
<wgt id='4229'>0.77560E+02</wgt>
<wgt id='4230'>0.78867E+02</wgt>
<wgt id='4231'>0.78313E+02</wgt>
<wgt id='4232'>0.78280E+02</wgt>
<wgt id='4233'>0.78471E+02</wgt>
<wgt id='4234'>0.77940E+02</wgt>
<wgt id='4235'>0.78808E+02</wgt>
<wgt id='4236'>0.77861E+02</wgt>
<wgt id='4237'>0.78775E+02</wgt>
<wgt id='4238'>0.77619E+02</wgt>
<wgt id='4239'>0.78507E+02</wgt>
<wgt id='4240'>0.77508E+02</wgt>
<wgt id='4241'>0.78087E+02</wgt>
<wgt id='4242'>0.78571E+02</wgt>
<wgt id='4243'>0.78384E+02</wgt>
<wgt id='4244'>0.78370E+02</wgt>
<wgt id='4245'>0.77775E+02</wgt>
<wgt id='4246'>0.78780E+02</wgt>
<wgt id='4247'>0.77979E+02</wgt>
<wgt id='4248'>0.78496E+02</wgt>
<wgt id='4249'>0.79312E+02</wgt>
<wgt id='4250'>0.77133E+02</wgt>
<wgt id='4251'>0.77837E+02</wgt>
<wgt id='4252'>0.78548E+02</wgt>
<wgt id='4253'>0.78024E+02</wgt>
<wgt id='4254'>0.78446E+02</wgt>
<wgt id='4255'>0.78895E+02</wgt>
<wgt id='4256'>0.77913E+02</wgt>
<wgt id='4257'>0.76939E+02</wgt>
<wgt id='4258'>0.78735E+02</wgt>
<wgt id='4300'>0.79752E+02</wgt>
<wgt id='4301'>0.79625E+02</wgt>
<wgt id='5000'>0.80776E+02</wgt>
<wgt id='5001'>0.80812E+02</wgt>
<wgt id='5002'>0.80729E+02</wgt>
<wgt id='5003'>0.80792E+02</wgt>
<wgt id='5004'>0.80761E+02</wgt>
<wgt id='5005'>0.80782E+02</wgt>
<wgt id='5006'>0.80766E+02</wgt>
<wgt id='5007'>0.80844E+02</wgt>
<wgt id='5008'>0.80720E+02</wgt>
<wgt id='5009'>0.80868E+02</wgt>
<wgt id='5010'>0.80680E+02</wgt>
<wgt id='5011'>0.80961E+02</wgt>
<wgt id='5012'>0.80598E+02</wgt>
<wgt id='5013'>0.80870E+02</wgt>
<wgt id='5014'>0.80709E+02</wgt>
<wgt id='5015'>0.80396E+02</wgt>
<wgt id='5016'>0.80396E+02</wgt>
<wgt id='5017'>0.81195E+02</wgt>
<wgt id='5018'>0.80492E+02</wgt>
<wgt id='5019'>0.81077E+02</wgt>
<wgt id='5020'>0.80364E+02</wgt>
<wgt id='5021'>0.80879E+02</wgt>
<wgt id='5022'>0.80614E+02</wgt>
<wgt id='5023'>0.80688E+02</wgt>
<wgt id='5024'>0.80985E+02</wgt>
<wgt id='5025'>0.80482E+02</wgt>
<wgt id='5026'>0.81106E+02</wgt>
<wgt id='5027'>0.80812E+02</wgt>
<wgt id='5028'>0.80677E+02</wgt>
<wgt id='5029'>0.81462E+02</wgt>
<wgt id='5030'>0.80387E+02</wgt>
<wgt id='5031'>0.80428E+02</wgt>
<wgt id='5032'>0.81825E+02</wgt>
<wgt id='5033'>0.80768E+02</wgt>
<wgt id='5034'>0.80785E+02</wgt>
<wgt id='5035'>0.80779E+02</wgt>
<wgt id='5036'>0.80774E+02</wgt>
<wgt id='5037'>0.80636E+02</wgt>
<wgt id='5038'>0.80855E+02</wgt>
<wgt id='5039'>0.80966E+02</wgt>
<wgt id='5040'>0.80310E+02</wgt>
<wgt id='5041'>0.80855E+02</wgt>
<wgt id='5042'>0.80699E+02</wgt>
<wgt id='5043'>0.80884E+02</wgt>
<wgt id='5044'>0.80725E+02</wgt>
<wgt id='5045'>0.80744E+02</wgt>
<wgt id='5046'>0.80780E+02</wgt>
<wgt id='5047'>0.80823E+02</wgt>
<wgt id='5048'>0.80570E+02</wgt>
<wgt id='5049'>0.80727E+02</wgt>
<wgt id='5050'>0.80891E+02</wgt>
<wgt id='5051'>0.80939E+02</wgt>
<wgt id='5052'>0.80643E+02</wgt>
<wgt id='5053'>0.80702E+02</wgt>
<wgt id='5054'>0.80950E+02</wgt>
<wgt id='5055'>0.80841E+02</wgt>
<wgt id='5056'>0.80804E+02</wgt>
<wgt id='5057'>0.80515E+02</wgt>
<wgt id='5058'>0.80959E+02</wgt>
<wgt id='5059'>0.80723E+02</wgt>
<wgt id='5060'>0.80817E+02</wgt>
<wgt id='5061'>0.80988E+02</wgt>
<wgt id='5062'>0.80868E+02</wgt>
<wgt id='5063'>0.81039E+02</wgt>
<wgt id='5064'>0.80775E+02</wgt>
<wgt id='5100'>0.80776E+02</wgt>
<wgt id='5101'>0.80783E+02</wgt>
<wgt id='6000'>0.80384E+02</wgt>
<wgt id='6001'>0.80337E+02</wgt>
<wgt id='6002'>0.80343E+02</wgt>
<wgt id='6003'>0.80242E+02</wgt>
<wgt id='6004'>0.80405E+02</wgt>
<wgt id='6005'>0.80091E+02</wgt>
<wgt id='6006'>0.80532E+02</wgt>
<wgt id='6007'>0.80140E+02</wgt>
<wgt id='6008'>0.80106E+02</wgt>
<wgt id='6009'>0.80414E+02</wgt>
<wgt id='6010'>0.79542E+02</wgt>
<wgt id='6011'>0.80367E+02</wgt>
<wgt id='6012'>0.80577E+02</wgt>
<wgt id='6013'>0.80071E+02</wgt>
<wgt id='6014'>0.80220E+02</wgt>
<wgt id='6015'>0.79943E+02</wgt>
<wgt id='6016'>0.80564E+02</wgt>
<wgt id='6017'>0.80197E+02</wgt>
<wgt id='6018'>0.80103E+02</wgt>
<wgt id='6019'>0.80371E+02</wgt>
<wgt id='6020'>0.80560E+02</wgt>
<wgt id='6021'>0.80312E+02</wgt>
<wgt id='6022'>0.80458E+02</wgt>
<wgt id='6023'>0.80361E+02</wgt>
<wgt id='6024'>0.80451E+02</wgt>
<wgt id='6025'>0.80683E+02</wgt>
<wgt id='6026'>0.80319E+02</wgt>
<wgt id='6027'>0.80393E+02</wgt>
<wgt id='6028'>0.80186E+02</wgt>
<wgt id='6029'>0.80297E+02</wgt>
<wgt id='6030'>0.80231E+02</wgt>
<wgt id='6031'>0.80191E+02</wgt>
<wgt id='6032'>0.80398E+02</wgt>
<wgt id='6033'>0.80318E+02</wgt>
<wgt id='6034'>0.80640E+02</wgt>
<wgt id='6035'>0.80424E+02</wgt>
<wgt id='6036'>0.80873E+02</wgt>
<wgt id='6037'>0.80382E+02</wgt>
<wgt id='6038'>0.80376E+02</wgt>
<wgt id='6039'>0.80523E+02</wgt>
<wgt id='6040'>0.80375E+02</wgt>
<wgt id='6041'>0.79283E+02</wgt>
<wgt id='6042'>0.81228E+02</wgt>
<wgt id='7000'>0.80598E+02</wgt>
<wgt id='7001'>0.80202E+02</wgt>
<wgt id='7002'>0.80360E+02</wgt>
<wgt id='7003'>0.80284E+02</wgt>
<wgt id='7004'>0.80278E+02</wgt>
<wgt id='7005'>0.80391E+02</wgt>
<wgt id='7006'>0.80171E+02</wgt>
<wgt id='7007'>0.80740E+02</wgt>
<wgt id='7008'>0.79835E+02</wgt>
<wgt id='7009'>0.79989E+02</wgt>
<wgt id='7010'>0.80584E+02</wgt>
<wgt id='7011'>0.80543E+02</wgt>
<wgt id='7012'>0.80023E+02</wgt>
<wgt id='7013'>0.80153E+02</wgt>
<wgt id='7014'>0.80404E+02</wgt>
<wgt id='7015'>0.80274E+02</wgt>
<wgt id='7016'>0.80113E+02</wgt>
<wgt id='7017'>0.80254E+02</wgt>
<wgt id='7018'>0.80309E+02</wgt>
<wgt id='7019'>0.80267E+02</wgt>
<wgt id='7020'>0.80303E+02</wgt>
<wgt id='7021'>0.80559E+02</wgt>
<wgt id='7022'>0.79979E+02</wgt>
<wgt id='7023'>0.79786E+02</wgt>
<wgt id='7024'>0.80783E+02</wgt>
<wgt id='7025'>0.79279E+02</wgt>
<wgt id='7026'>0.81195E+02</wgt>
<wgt id='7027'>0.79883E+02</wgt>
<wgt id='7028'>0.80742E+02</wgt>
<wgt id='8000'>0.80913E+02</wgt>
<wgt id='8001'>0.80902E+02</wgt>
<wgt id='8002'>0.80937E+02</wgt>
<wgt id='8003'>0.80916E+02</wgt>
<wgt id='8004'>0.80911E+02</wgt>
<wgt id='8005'>0.80758E+02</wgt>
<wgt id='8006'>0.80978E+02</wgt>
<wgt id='8007'>0.81031E+02</wgt>
<wgt id='8008'>0.81085E+02</wgt>
<wgt id='8009'>0.81242E+02</wgt>
<wgt id='8010'>0.80837E+02</wgt>
<wgt id='8011'>0.80922E+02</wgt>
<wgt id='8012'>0.80650E+02</wgt>
<wgt id='8013'>0.80776E+02</wgt>
<wgt id='8014'>0.81071E+02</wgt>
<wgt id='8015'>0.80864E+02</wgt>
<wgt id='8016'>0.80991E+02</wgt>
<wgt id='8017'>0.80975E+02</wgt>
<wgt id='8018'>0.81104E+02</wgt>
<wgt id='8019'>0.80933E+02</wgt>
<wgt id='8020'>0.80917E+02</wgt>
<wgt id='8021'>0.80835E+02</wgt>
<wgt id='8022'>0.80912E+02</wgt>
<wgt id='8023'>0.80800E+02</wgt>
<wgt id='8024'>0.80655E+02</wgt>
<wgt id='8025'>0.80831E+02</wgt>
<wgt id='8026'>0.81005E+02</wgt>
<wgt id='8027'>0.80956E+02</wgt>
<wgt id='8028'>0.80971E+02</wgt>
<wgt id='8029'>0.81110E+02</wgt>
<wgt id='3000'>0.81104E+02</wgt>
<wgt id='3001'>0.80567E+02</wgt>
<wgt id='3002'>0.79773E+02</wgt>
<wgt id='3003'>0.79238E+02</wgt>
<wgt id='3004'>0.81966E+02</wgt>
<wgt id='3005'>0.82074E+02</wgt>
<wgt id='3006'>0.82475E+02</wgt>
<wgt id='3007'>0.80387E+02</wgt>
<wgt id='3008'>0.80648E+02</wgt>
<wgt id='3009'>0.80709E+02</wgt>
<wgt id='3010'>0.82887E+02</wgt>
<wgt id='3011'>0.81252E+02</wgt>
<wgt id='3012'>0.81153E+02</wgt>
<wgt id='3013'>0.80265E+02</wgt>
<wgt id='3014'>0.80927E+02</wgt>
<wgt id='3015'>0.80315E+02</wgt>
<wgt id='3016'>0.81510E+02</wgt>
<wgt id='3017'>0.82629E+02</wgt>
<wgt id='3018'>0.80973E+02</wgt>
<wgt id='3019'>0.80031E+02</wgt>
<wgt id='3020'>0.80936E+02</wgt>
<wgt id='3021'>0.79182E+02</wgt>
<wgt id='3022'>0.79680E+02</wgt>
<wgt id='3023'>0.79976E+02</wgt>
<wgt id='3024'>0.81330E+02</wgt>
<wgt id='3025'>0.80294E+02</wgt>
<wgt id='3026'>0.80566E+02</wgt>
<wgt id='3027'>0.80350E+02</wgt>
<wgt id='3028'>0.80266E+02</wgt>
<wgt id='3029'>0.82083E+02</wgt>
<wgt id='3030'>0.81431E+02</wgt>
<wgt id='3031'>0.80529E+02</wgt>
<wgt id='3032'>0.81120E+02</wgt>
<wgt id='3033'>0.80438E+02</wgt>
<wgt id='3034'>0.82371E+02</wgt>
<wgt id='3035'>0.80849E+02</wgt>
<wgt id='3036'>0.80741E+02</wgt>
<wgt id='3037'>0.80265E+02</wgt>
<wgt id='3038'>0.81669E+02</wgt>
<wgt id='3039'>0.79749E+02</wgt>
<wgt id='3040'>0.81465E+02</wgt>
<wgt id='3041'>0.81905E+02</wgt>
<wgt id='3042'>0.81506E+02</wgt>
<wgt id='3043'>0.81740E+02</wgt>
<wgt id='3044'>0.81623E+02</wgt>
<wgt id='3045'>0.81645E+02</wgt>
<wgt id='3046'>0.81769E+02</wgt>
<wgt id='3047'>0.80418E+02</wgt>
<wgt id='3048'>0.81357E+02</wgt>
<wgt id='3049'>0.79735E+02</wgt>
<wgt id='3050'>0.81184E+02</wgt>
<wgt id='3051'>0.80353E+02</wgt>
<wgt id='3052'>0.80075E+02</wgt>
<wgt id='3053'>0.81133E+02</wgt>
<wgt id='3054'>0.79299E+02</wgt>
<wgt id='3055'>0.81351E+02</wgt>
<wgt id='3056'>0.81226E+02</wgt>
<wgt id='3057'>0.80212E+02</wgt>
<wgt id='3058'>0.81358E+02</wgt>
<wgt id='3059'>0.82079E+02</wgt>
<wgt id='3060'>0.80788E+02</wgt>
<wgt id='3061'>0.80416E+02</wgt>
<wgt id='3062'>0.80889E+02</wgt>
<wgt id='3063'>0.81178E+02</wgt>
<wgt id='3064'>0.81833E+02</wgt>
<wgt id='3065'>0.80451E+02</wgt>
<wgt id='3066'>0.82107E+02</wgt>
<wgt id='3067'>0.79821E+02</wgt>
<wgt id='3068'>0.81110E+02</wgt>
<wgt id='3069'>0.81246E+02</wgt>
<wgt id='3070'>0.80788E+02</wgt>
<wgt id='3071'>0.81193E+02</wgt>
<wgt id='3072'>0.79804E+02</wgt>
<wgt id='3073'>0.81871E+02</wgt>
<wgt id='3074'>0.80898E+02</wgt>
<wgt id='3075'>0.82100E+02</wgt>
<wgt id='3076'>0.82397E+02</wgt>
<wgt id='3077'>0.81634E+02</wgt>
<wgt id='3078'>0.79380E+02</wgt>
<wgt id='3079'>0.81216E+02</wgt>
<wgt id='3080'>0.82408E+02</wgt>
<wgt id='3081'>0.81040E+02</wgt>
<wgt id='3082'>0.81510E+02</wgt>
<wgt id='3083'>0.81584E+02</wgt>
<wgt id='3084'>0.81091E+02</wgt>
<wgt id='3085'>0.79468E+02</wgt>
<wgt id='3086'>0.81281E+02</wgt>
<wgt id='3087'>0.81050E+02</wgt>
<wgt id='3088'>0.82502E+02</wgt>
<wgt id='3089'>0.84580E+02</wgt>
<wgt id='3090'>0.82086E+02</wgt>
<wgt id='3091'>0.81249E+02</wgt>
<wgt id='3092'>0.82324E+02</wgt>
<wgt id='3093'>0.81828E+02</wgt>
<wgt id='3094'>0.81668E+02</wgt>
<wgt id='3095'>0.81329E+02</wgt>
<wgt id='3096'>0.80248E+02</wgt>
<wgt id='3097'>0.82483E+02</wgt>
<wgt id='3098'>0.82220E+02</wgt>
<wgt id='3099'>0.80663E+02</wgt>
<wgt id='3100'>0.81218E+02</wgt>
<wgt id='3200'>0.79180E+02</wgt>
<wgt id='3201'>0.79456E+02</wgt>
<wgt id='3202'>0.77880E+02</wgt>
<wgt id='3203'>0.79474E+02</wgt>
<wgt id='3204'>0.78273E+02</wgt>
<wgt id='3205'>0.79288E+02</wgt>
<wgt id='3206'>0.80215E+02</wgt>
<wgt id='3207'>0.80208E+02</wgt>
<wgt id='3208'>0.79774E+02</wgt>
<wgt id='3209'>0.78888E+02</wgt>
<wgt id='3210'>0.79198E+02</wgt>
<wgt id='3211'>0.79754E+02</wgt>
<wgt id='3212'>0.79052E+02</wgt>
<wgt id='3213'>0.79130E+02</wgt>
<wgt id='3214'>0.78608E+02</wgt>
<wgt id='3215'>0.79351E+02</wgt>
<wgt id='3216'>0.79932E+02</wgt>
<wgt id='3217'>0.79685E+02</wgt>
<wgt id='3218'>0.79868E+02</wgt>
<wgt id='3219'>0.79306E+02</wgt>
<wgt id='3220'>0.78544E+02</wgt>
<wgt id='3221'>0.79534E+02</wgt>
<wgt id='3222'>0.80067E+02</wgt>
<wgt id='3223'>0.79863E+02</wgt>
<wgt id='3224'>0.78945E+02</wgt>
<wgt id='3225'>0.80188E+02</wgt>
<wgt id='3226'>0.78720E+02</wgt>
<wgt id='3227'>0.78329E+02</wgt>
<wgt id='3228'>0.78425E+02</wgt>
<wgt id='3229'>0.79930E+02</wgt>
<wgt id='3230'>0.79518E+02</wgt>
<wgt id='3231'>0.79214E+02</wgt>
<wgt id='3232'>0.79441E+02</wgt>
<wgt id='3233'>0.79403E+02</wgt>
<wgt id='3234'>0.78566E+02</wgt>
<wgt id='3235'>0.79141E+02</wgt>
<wgt id='3236'>0.78575E+02</wgt>
<wgt id='3237'>0.79372E+02</wgt>
<wgt id='3238'>0.78298E+02</wgt>
<wgt id='3239'>0.79146E+02</wgt>
<wgt id='3240'>0.78428E+02</wgt>
<wgt id='3241'>0.80011E+02</wgt>
<wgt id='3242'>0.78637E+02</wgt>
<wgt id='3243'>0.78923E+02</wgt>
<wgt id='3244'>0.78987E+02</wgt>
<wgt id='3245'>0.79474E+02</wgt>
<wgt id='3246'>0.77762E+02</wgt>
<wgt id='3247'>0.78996E+02</wgt>
<wgt id='3248'>0.78669E+02</wgt>
<wgt id='3249'>0.78380E+02</wgt>
<wgt id='3250'>0.79796E+02</wgt>
<wgt id='3251'>0.78763E+02</wgt>
<wgt id='3252'>0.79505E+02</wgt>
<wgt id='3253'>0.79031E+02</wgt>
<wgt id='3254'>0.79195E+02</wgt>
<wgt id='3255'>0.78719E+02</wgt>
<wgt id='3256'>0.79280E+02</wgt>
<wgt id='3257'>0.79273E+02</wgt>
<wgt id='3258'>0.78966E+02</wgt>
<wgt id='3259'>0.78478E+02</wgt>
<wgt id='3260'>0.79003E+02</wgt>
<wgt id='3261'>0.78905E+02</wgt>
<wgt id='3262'>0.79412E+02</wgt>
<wgt id='3263'>0.80165E+02</wgt>
<wgt id='3264'>0.79206E+02</wgt>
<wgt id='3265'>0.79548E+02</wgt>
<wgt id='3266'>0.79372E+02</wgt>
<wgt id='3267'>0.78984E+02</wgt>
<wgt id='3268'>0.79183E+02</wgt>
<wgt id='3269'>0.79272E+02</wgt>
<wgt id='3270'>0.80132E+02</wgt>
<wgt id='3271'>0.79477E+02</wgt>
<wgt id='3272'>0.79422E+02</wgt>
<wgt id='3273'>0.78983E+02</wgt>
<wgt id='3274'>0.78572E+02</wgt>
<wgt id='3275'>0.79619E+02</wgt>
<wgt id='3276'>0.78623E+02</wgt>
<wgt id='3277'>0.79434E+02</wgt>
<wgt id='3278'>0.79279E+02</wgt>
<wgt id='3279'>0.79605E+02</wgt>
<wgt id='3280'>0.78898E+02</wgt>
<wgt id='3281'>0.79280E+02</wgt>
<wgt id='3282'>0.79300E+02</wgt>
<wgt id='3283'>0.79229E+02</wgt>
<wgt id='3284'>0.79081E+02</wgt>
<wgt id='3285'>0.78837E+02</wgt>
<wgt id='3286'>0.78437E+02</wgt>
<wgt id='3287'>0.79648E+02</wgt>
<wgt id='3288'>0.79300E+02</wgt>
<wgt id='3289'>0.80314E+02</wgt>
<wgt id='3290'>0.78975E+02</wgt>
<wgt id='3291'>0.78083E+02</wgt>
<wgt id='3292'>0.79404E+02</wgt>
<wgt id='3293'>0.79059E+02</wgt>
<wgt id='3294'>0.78530E+02</wgt>
<wgt id='3295'>0.79172E+02</wgt>
<wgt id='3296'>0.79898E+02</wgt>
<wgt id='3297'>0.79178E+02</wgt>
<wgt id='3298'>0.78539E+02</wgt>
<wgt id='3299'>0.79230E+02</wgt>
<wgt id='3300'>0.79513E+02</wgt>
<wgt id='3301'>0.77858E+02</wgt>
<wgt id='3302'>0.80275E+02</wgt>
<wgt id='3400'>0.78505E+02</wgt>
<wgt id='3401'>0.78428E+02</wgt>
<wgt id='3402'>0.77280E+02</wgt>
<wgt id='3403'>0.79354E+02</wgt>
<wgt id='3404'>0.79895E+02</wgt>
<wgt id='3405'>0.78886E+02</wgt>
<wgt id='3406'>0.79502E+02</wgt>
<wgt id='3407'>0.78439E+02</wgt>
<wgt id='3408'>0.79561E+02</wgt>
<wgt id='3409'>0.79311E+02</wgt>
<wgt id='3410'>0.78777E+02</wgt>
<wgt id='3411'>0.79700E+02</wgt>
<wgt id='3412'>0.79304E+02</wgt>
<wgt id='3413'>0.78448E+02</wgt>
<wgt id='3414'>0.77843E+02</wgt>
<wgt id='3415'>0.78164E+02</wgt>
<wgt id='3416'>0.77840E+02</wgt>
<wgt id='3417'>0.78959E+02</wgt>
<wgt id='3418'>0.77704E+02</wgt>
<wgt id='3419'>0.77903E+02</wgt>
<wgt id='3420'>0.78226E+02</wgt>
<wgt id='3421'>0.78182E+02</wgt>
<wgt id='3422'>0.78788E+02</wgt>
<wgt id='3423'>0.78986E+02</wgt>
<wgt id='3424'>0.79123E+02</wgt>
<wgt id='3425'>0.78173E+02</wgt>
<wgt id='3426'>0.78164E+02</wgt>
<wgt id='3427'>0.77988E+02</wgt>
<wgt id='3428'>0.79456E+02</wgt>
<wgt id='3429'>0.77778E+02</wgt>
<wgt id='3430'>0.78665E+02</wgt>
<wgt id='3431'>0.78729E+02</wgt>
<wgt id='3432'>0.79138E+02</wgt>
<wgt id='3433'>0.77780E+02</wgt>
<wgt id='3434'>0.78922E+02</wgt>
<wgt id='3435'>0.78914E+02</wgt>
<wgt id='3436'>0.78235E+02</wgt>
<wgt id='3437'>0.79156E+02</wgt>
<wgt id='3438'>0.77792E+02</wgt>
<wgt id='3439'>0.77966E+02</wgt>
<wgt id='3440'>0.78560E+02</wgt>
<wgt id='3441'>0.78266E+02</wgt>
<wgt id='3442'>0.77223E+02</wgt>
<wgt id='3443'>0.78741E+02</wgt>
<wgt id='3444'>0.77973E+02</wgt>
<wgt id='3445'>0.78261E+02</wgt>
<wgt id='3446'>0.78550E+02</wgt>
<wgt id='3447'>0.78866E+02</wgt>
<wgt id='3448'>0.79855E+02</wgt>
<wgt id='3449'>0.79112E+02</wgt>
<wgt id='3450'>0.78344E+02</wgt>
<wgt id='3451'>0.79413E+02</wgt>
<wgt id='3452'>0.78236E+02</wgt>
<wgt id='3453'>0.77527E+02</wgt>
<wgt id='3454'>0.78193E+02</wgt>
<wgt id='3455'>0.79038E+02</wgt>
<wgt id='3456'>0.78727E+02</wgt>
<wgt id='3457'>0.79191E+02</wgt>
<wgt id='3458'>0.78322E+02</wgt>
<wgt id='3459'>0.78402E+02</wgt>
<wgt id='3460'>0.78319E+02</wgt>
<wgt id='3461'>0.77592E+02</wgt>
<wgt id='3462'>0.78463E+02</wgt>
<wgt id='3463'>0.77519E+02</wgt>
<wgt id='3464'>0.79038E+02</wgt>
<wgt id='3465'>0.78929E+02</wgt>
<wgt id='3466'>0.78814E+02</wgt>
<wgt id='3467'>0.78283E+02</wgt>
<wgt id='3468'>0.77782E+02</wgt>
<wgt id='3469'>0.78118E+02</wgt>
<wgt id='3470'>0.78261E+02</wgt>
<wgt id='3471'>0.78251E+02</wgt>
<wgt id='3472'>0.77556E+02</wgt>
<wgt id='3473'>0.79411E+02</wgt>
<wgt id='3474'>0.78109E+02</wgt>
<wgt id='3475'>0.78815E+02</wgt>
<wgt id='3476'>0.78449E+02</wgt>
<wgt id='3477'>0.77954E+02</wgt>
<wgt id='3478'>0.79350E+02</wgt>
<wgt id='3479'>0.78844E+02</wgt>
<wgt id='3480'>0.78767E+02</wgt>
<wgt id='3481'>0.79062E+02</wgt>
<wgt id='3482'>0.78657E+02</wgt>
<wgt id='3483'>0.77967E+02</wgt>
<wgt id='3484'>0.77878E+02</wgt>
<wgt id='3485'>0.78126E+02</wgt>
<wgt id='3486'>0.76781E+02</wgt>
<wgt id='3487'>0.78428E+02</wgt>
<wgt id='3488'>0.78930E+02</wgt>
<wgt id='3489'>0.77609E+02</wgt>
<wgt id='3490'>0.79014E+02</wgt>
<wgt id='3491'>0.79514E+02</wgt>
<wgt id='3492'>0.78344E+02</wgt>
<wgt id='3493'>0.78999E+02</wgt>
<wgt id='3494'>0.76591E+02</wgt>
<wgt id='3495'>0.78689E+02</wgt>
<wgt id='3496'>0.77708E+02</wgt>
<wgt id='3497'>0.78113E+02</wgt>
<wgt id='3498'>0.79416E+02</wgt>
<wgt id='3499'>0.78141E+02</wgt>
<wgt id='3500'>0.79570E+02</wgt>
</rwgt>
</event>
<event>
     13 322200  8.11039E+01  5.96084E+01 -1.00000E+00  1.32969E-01
       1    -1     0     0   503     0  0.000000000E+00  0.000000000E+00  1.925569518E+02  1.925569518E+02  0.000000000E+00  0.00000E+00  9.000E+00
      21    -1     0     0   502   503  0.000000000E+00  0.000000000E+00 -8.017809731E+02  8.017809731E+02  0.000000000E+00  0.00000E+00  9.000E+00
       6     2     1     2   502     0  9.852710244E+01 -3.486209652E+01 -1.139483161E+02  2.319684310E+02  1.729224640E+02  0.00000E+00  9.000E+00
      -6     2     1     2     0   512 -1.285003405E+02 -1.666230144E+01 -6.022729495E+02  6.398884219E+02  1.730159443E+02  0.00000E+00  9.000E+00
       1     1     1     2   512     0  2.997323808E+01  5.152439796E+01  1.069972443E+02  1.224810719E+02  2.100000000E-01  0.00000E+00  9.000E+00
      24     2     3     3     0     0 -1.008731948E+01 -3.755768929E+01 -7.278882367E+01  1.156754119E+02  8.105710351E+01  0.00000E+00  9.000E+00
       5     1     3     3   502     0  1.086144219E+02  2.695592772E+00 -4.115949245E+01  1.162930191E+02  5.060000000E+00  0.00000E+00 -1.000E+00
     -24     2     4     4     0     0 -9.809227128E+01  4.172062384E+01 -3.064969751E+02  3.368335634E+02  9.029811477E+01  0.00000E+00  9.000E+00
      -5     1     4     4     0   512 -3.040806925E+01 -5.838292528E+01 -2.957759745E+02  3.030548586E+02  5.060000000E+00  0.00000E+00  1.000E+00
     -15     1     6     6     0     0  3.332940777E+01 -3.142173101E+01 -4.119322738E+01  6.162965449E+01  1.777000000E+00  0.00000E+00  1.000E+00
      16     1     6     6     0     0 -4.341672725E+01 -6.135958283E+00 -3.159559629E+01  5.404575741E+01  0.000000000E+00  0.00000E+00 -1.000E+00
      11     1     8     8     0     0 -8.267428157E+01  3.258800694E+00 -2.672342088E+02  2.797494932E+02  5.100000000E-04  0.00000E+00 -1.000E+00
     -12     1     8     8     0     0 -1.541798971E+01  3.846182314E+01 -3.926276632E+01  5.708407015E+01  0.000000000E+00  0.00000E+00  1.000E+00
#rwgt            1           1   730.46531390007249               10       35216           0
<rwgt>
<wgt id='1001'>0.81104E+02</wgt>
<wgt id='1002'>0.80625E+02</wgt>
<wgt id='1003'>0.81341E+02</wgt>
<wgt id='1004'>0.69016E+02</wgt>
<wgt id='1005'>0.68249E+02</wgt>
<wgt id='1006'>0.69612E+02</wgt>
<wgt id='1007'>0.96743E+02</wgt>
<wgt id='1008'>0.96796E+02</wgt>
<wgt id='1009'>0.96341E+02</wgt>
<wgt id='2000'>0.81104E+02</wgt>
<wgt id='2001'>0.80906E+02</wgt>
<wgt id='2002'>0.80947E+02</wgt>
<wgt id='2003'>0.81329E+02</wgt>
<wgt id='2004'>0.81280E+02</wgt>
<wgt id='2005'>0.81005E+02</wgt>
<wgt id='2006'>0.81310E+02</wgt>
<wgt id='2007'>0.81228E+02</wgt>
<wgt id='2008'>0.81176E+02</wgt>
<wgt id='2009'>0.81176E+02</wgt>
<wgt id='2010'>0.81058E+02</wgt>
<wgt id='2011'>0.81100E+02</wgt>
<wgt id='2012'>0.81234E+02</wgt>
<wgt id='2013'>0.81150E+02</wgt>
<wgt id='2014'>0.81141E+02</wgt>
<wgt id='2015'>0.81082E+02</wgt>
<wgt id='2016'>0.81197E+02</wgt>
<wgt id='2017'>0.81223E+02</wgt>
<wgt id='2018'>0.81237E+02</wgt>
<wgt id='2019'>0.80452E+02</wgt>
<wgt id='2020'>0.81234E+02</wgt>
<wgt id='2021'>0.81100E+02</wgt>
<wgt id='2022'>0.81092E+02</wgt>
<wgt id='2023'>0.81476E+02</wgt>
<wgt id='2024'>0.80758E+02</wgt>
<wgt id='2025'>0.81161E+02</wgt>
<wgt id='2026'>0.80897E+02</wgt>
<wgt id='2027'>0.81050E+02</wgt>
<wgt id='2028'>0.81330E+02</wgt>
<wgt id='2029'>0.80967E+02</wgt>
<wgt id='2030'>0.81165E+02</wgt>
<wgt id='2031'>0.80699E+02</wgt>
<wgt id='2032'>0.81023E+02</wgt>
<wgt id='2033'>0.80997E+02</wgt>
<wgt id='2034'>0.80850E+02</wgt>
<wgt id='2035'>0.81170E+02</wgt>
<wgt id='2036'>0.81281E+02</wgt>
<wgt id='2037'>0.81056E+02</wgt>
<wgt id='2038'>0.80978E+02</wgt>
<wgt id='2039'>0.81042E+02</wgt>
<wgt id='2040'>0.81035E+02</wgt>
<wgt id='2041'>0.81027E+02</wgt>
<wgt id='2042'>0.81220E+02</wgt>
<wgt id='2043'>0.81036E+02</wgt>
<wgt id='2044'>0.81198E+02</wgt>
<wgt id='2045'>0.81105E+02</wgt>
<wgt id='2046'>0.81088E+02</wgt>
<wgt id='2047'>0.81109E+02</wgt>
<wgt id='2048'>0.81112E+02</wgt>
<wgt id='2049'>0.81036E+02</wgt>
<wgt id='2050'>0.81055E+02</wgt>
<wgt id='2051'>0.81084E+02</wgt>
<wgt id='2052'>0.81204E+02</wgt>
<wgt id='2053'>0.81098E+02</wgt>
<wgt id='2054'>0.81098E+02</wgt>
<wgt id='2055'>0.81080E+02</wgt>
<wgt id='2056'>0.81039E+02</wgt>
<wgt id='2057'>0.81130E+02</wgt>
<wgt id='2058'>0.81158E+02</wgt>
<wgt id='2059'>0.81110E+02</wgt>
<wgt id='2060'>0.81095E+02</wgt>
<wgt id='2061'>0.81091E+02</wgt>
<wgt id='2062'>0.81179E+02</wgt>
<wgt id='2063'>0.81122E+02</wgt>
<wgt id='2064'>0.81108E+02</wgt>
<wgt id='2065'>0.81171E+02</wgt>
<wgt id='2066'>0.81072E+02</wgt>
<wgt id='2067'>0.81111E+02</wgt>
<wgt id='2068'>0.81126E+02</wgt>
<wgt id='2069'>0.81114E+02</wgt>
<wgt id='2070'>0.81124E+02</wgt>
<wgt id='2071'>0.81090E+02</wgt>
<wgt id='2072'>0.81096E+02</wgt>
<wgt id='2073'>0.81129E+02</wgt>
<wgt id='2074'>0.81086E+02</wgt>
<wgt id='2075'>0.81080E+02</wgt>
<wgt id='2076'>0.81074E+02</wgt>
<wgt id='2077'>0.81155E+02</wgt>
<wgt id='2078'>0.81120E+02</wgt>
<wgt id='2079'>0.81082E+02</wgt>
<wgt id='2080'>0.81122E+02</wgt>
<wgt id='2081'>0.81102E+02</wgt>
<wgt id='2082'>0.81124E+02</wgt>
<wgt id='2083'>0.81139E+02</wgt>
<wgt id='2084'>0.81108E+02</wgt>
<wgt id='2085'>0.81112E+02</wgt>
<wgt id='2086'>0.81091E+02</wgt>
<wgt id='2087'>0.81116E+02</wgt>
<wgt id='2088'>0.81106E+02</wgt>
<wgt id='2089'>0.81092E+02</wgt>
<wgt id='2090'>0.81119E+02</wgt>
<wgt id='2091'>0.81106E+02</wgt>
<wgt id='2092'>0.81136E+02</wgt>
<wgt id='2093'>0.81089E+02</wgt>
<wgt id='2094'>0.81104E+02</wgt>
<wgt id='2095'>0.81123E+02</wgt>
<wgt id='2096'>0.81092E+02</wgt>
<wgt id='2097'>0.81118E+02</wgt>
<wgt id='2098'>0.81101E+02</wgt>
<wgt id='2099'>0.81113E+02</wgt>
<wgt id='2100'>0.81104E+02</wgt>
<wgt id='2101'>0.79129E+02</wgt>
<wgt id='2102'>0.83593E+02</wgt>
<wgt id='2200'>0.81200E+02</wgt>
<wgt id='2201'>0.70097E+02</wgt>
<wgt id='2202'>0.72376E+02</wgt>
<wgt id='2203'>0.74402E+02</wgt>
<wgt id='2204'>0.76380E+02</wgt>
<wgt id='2205'>0.80134E+02</wgt>
<wgt id='2206'>0.82561E+02</wgt>
<wgt id='2207'>0.85924E+02</wgt>
<wgt id='2208'>0.88249E+02</wgt>
<wgt id='2300'>0.85491E+02</wgt>
<wgt id='2301'>0.85663E+02</wgt>
<wgt id='2302'>0.85329E+02</wgt>
<wgt id='2303'>0.85473E+02</wgt>
<wgt id='2304'>0.85743E+02</wgt>
<wgt id='2305'>0.85520E+02</wgt>
<wgt id='2306'>0.85477E+02</wgt>
<wgt id='2307'>0.85500E+02</wgt>
<wgt id='2308'>0.85427E+02</wgt>
<wgt id='2309'>0.85525E+02</wgt>
<wgt id='2310'>0.85306E+02</wgt>
<wgt id='2311'>0.85421E+02</wgt>
<wgt id='2312'>0.85618E+02</wgt>
<wgt id='2313'>0.85428E+02</wgt>
<wgt id='2314'>0.85465E+02</wgt>
<wgt id='2315'>0.85463E+02</wgt>
<wgt id='2316'>0.85533E+02</wgt>
<wgt id='2317'>0.85468E+02</wgt>
<wgt id='2318'>0.85450E+02</wgt>
<wgt id='2319'>0.85643E+02</wgt>
<wgt id='2320'>0.85768E+02</wgt>
<wgt id='2321'>0.85743E+02</wgt>
<wgt id='2322'>0.85488E+02</wgt>
<wgt id='2323'>0.85569E+02</wgt>
<wgt id='2324'>0.85667E+02</wgt>
<wgt id='2325'>0.85591E+02</wgt>
<wgt id='2326'>0.85214E+02</wgt>
<wgt id='2327'>0.85580E+02</wgt>
<wgt id='2328'>0.85634E+02</wgt>
<wgt id='2329'>0.85268E+02</wgt>
<wgt id='2330'>0.86050E+02</wgt>
<wgt id='2331'>0.85761E+02</wgt>
<wgt id='2332'>0.85259E+02</wgt>
<wgt id='2333'>0.85358E+02</wgt>
<wgt id='2334'>0.85392E+02</wgt>
<wgt id='2335'>0.85578E+02</wgt>
<wgt id='2336'>0.85641E+02</wgt>
<wgt id='2337'>0.85597E+02</wgt>
<wgt id='2338'>0.85534E+02</wgt>
<wgt id='2339'>0.85797E+02</wgt>
<wgt id='2340'>0.85522E+02</wgt>
<wgt id='2341'>0.85429E+02</wgt>
<wgt id='2342'>0.85224E+02</wgt>
<wgt id='2343'>0.85209E+02</wgt>
<wgt id='2344'>0.85710E+02</wgt>
<wgt id='2345'>0.85674E+02</wgt>
<wgt id='2346'>0.85618E+02</wgt>
<wgt id='2347'>0.85422E+02</wgt>
<wgt id='2348'>0.85656E+02</wgt>
<wgt id='2349'>0.85411E+02</wgt>
<wgt id='2350'>0.85404E+02</wgt>
<wgt id='2351'>0.85782E+02</wgt>
<wgt id='2352'>0.85473E+02</wgt>
<wgt id='2353'>0.85385E+02</wgt>
<wgt id='2354'>0.85450E+02</wgt>
<wgt id='2355'>0.85623E+02</wgt>
<wgt id='2356'>0.85502E+02</wgt>
<wgt id='2357'>0.85419E+02</wgt>
<wgt id='2358'>0.85503E+02</wgt>
<wgt id='2359'>0.85450E+02</wgt>
<wgt id='2360'>0.85483E+02</wgt>
<wgt id='2361'>0.85451E+02</wgt>
<wgt id='2362'>0.85462E+02</wgt>
<wgt id='2363'>0.85554E+02</wgt>
<wgt id='2364'>0.85503E+02</wgt>
<wgt id='2365'>0.85519E+02</wgt>
<wgt id='2366'>0.85502E+02</wgt>
<wgt id='2367'>0.85509E+02</wgt>
<wgt id='2368'>0.85470E+02</wgt>
<wgt id='2369'>0.85449E+02</wgt>
<wgt id='2370'>0.85469E+02</wgt>
<wgt id='2371'>0.85531E+02</wgt>
<wgt id='2372'>0.85497E+02</wgt>
<wgt id='2373'>0.85454E+02</wgt>
<wgt id='2374'>0.85618E+02</wgt>
<wgt id='2375'>0.85484E+02</wgt>
<wgt id='2376'>0.85515E+02</wgt>
<wgt id='2377'>0.85507E+02</wgt>
<wgt id='2378'>0.85530E+02</wgt>
<wgt id='2379'>0.85444E+02</wgt>
<wgt id='2380'>0.85442E+02</wgt>
<wgt id='2381'>0.85469E+02</wgt>
<wgt id='2382'>0.85438E+02</wgt>
<wgt id='2383'>0.85547E+02</wgt>
<wgt id='2384'>0.85517E+02</wgt>
<wgt id='2385'>0.85483E+02</wgt>
<wgt id='2386'>0.85492E+02</wgt>
<wgt id='2387'>0.85478E+02</wgt>
<wgt id='2388'>0.85488E+02</wgt>
<wgt id='2389'>0.85500E+02</wgt>
<wgt id='2390'>0.85445E+02</wgt>
<wgt id='2391'>0.85467E+02</wgt>
<wgt id='2392'>0.85516E+02</wgt>
<wgt id='2393'>0.85517E+02</wgt>
<wgt id='2394'>0.85495E+02</wgt>
<wgt id='2395'>0.85500E+02</wgt>
<wgt id='2396'>0.85479E+02</wgt>
<wgt id='2397'>0.85468E+02</wgt>
<wgt id='2398'>0.85515E+02</wgt>
<wgt id='2399'>0.85511E+02</wgt>
<wgt id='2400'>0.85498E+02</wgt>
<wgt id='2401'>0.83166E+02</wgt>
<wgt id='2402'>0.87971E+02</wgt>
<wgt id='2500'>0.82144E+02</wgt>
<wgt id='2501'>0.87290E+02</wgt>
<wgt id='2600'>0.79241E+02</wgt>
<wgt id='2601'>0.79062E+02</wgt>
<wgt id='2602'>0.79322E+02</wgt>
<wgt id='2603'>0.79225E+02</wgt>
<wgt id='2604'>0.79325E+02</wgt>
<wgt id='2605'>0.79153E+02</wgt>
<wgt id='2606'>0.79234E+02</wgt>
<wgt id='2607'>0.79296E+02</wgt>
<wgt id='2608'>0.79316E+02</wgt>
<wgt id='2609'>0.79175E+02</wgt>
<wgt id='2610'>0.79185E+02</wgt>
<wgt id='2611'>0.79208E+02</wgt>
<wgt id='2612'>0.79305E+02</wgt>
<wgt id='2613'>0.79234E+02</wgt>
<wgt id='2614'>0.79182E+02</wgt>
<wgt id='2615'>0.79057E+02</wgt>
<wgt id='2616'>0.79264E+02</wgt>
<wgt id='2617'>0.79047E+02</wgt>
<wgt id='2618'>0.79150E+02</wgt>
<wgt id='2619'>0.79314E+02</wgt>
<wgt id='2620'>0.79157E+02</wgt>
<wgt id='2621'>0.79319E+02</wgt>
<wgt id='2622'>0.79580E+02</wgt>
<wgt id='2623'>0.79231E+02</wgt>
<wgt id='2624'>0.79222E+02</wgt>
<wgt id='2625'>0.79232E+02</wgt>
<wgt id='2626'>0.79233E+02</wgt>
<wgt id='2627'>0.79282E+02</wgt>
<wgt id='2628'>0.79244E+02</wgt>
<wgt id='2629'>0.79275E+02</wgt>
<wgt id='2630'>0.79337E+02</wgt>
<wgt id='2631'>0.79093E+02</wgt>
<wgt id='2632'>0.79231E+02</wgt>
<wgt id='2633'>0.79178E+02</wgt>
<wgt id='2634'>0.79121E+02</wgt>
<wgt id='2635'>0.79210E+02</wgt>
<wgt id='2636'>0.79240E+02</wgt>
<wgt id='2637'>0.79265E+02</wgt>
<wgt id='2638'>0.79268E+02</wgt>
<wgt id='2639'>0.79250E+02</wgt>
<wgt id='2640'>0.79223E+02</wgt>
<wgt id='2641'>0.79270E+02</wgt>
<wgt id='2642'>0.79259E+02</wgt>
<wgt id='2643'>0.79219E+02</wgt>
<wgt id='2644'>0.79236E+02</wgt>
<wgt id='2645'>0.79240E+02</wgt>
<wgt id='2646'>0.79301E+02</wgt>
<wgt id='2647'>0.79226E+02</wgt>
<wgt id='2648'>0.79224E+02</wgt>
<wgt id='2649'>0.79234E+02</wgt>
<wgt id='2650'>0.79244E+02</wgt>
<wgt id='2651'>0.77793E+02</wgt>
<wgt id='2652'>0.80487E+02</wgt>
<wgt id='2700'>0.76523E+02</wgt>
<wgt id='2701'>0.77793E+02</wgt>
<wgt id='2702'>0.78582E+02</wgt>
<wgt id='2703'>0.79860E+02</wgt>
<wgt id='2704'>0.80487E+02</wgt>
<wgt id='2705'>0.81815E+02</wgt>
<wgt id='2800'>0.80770E+02</wgt>
<wgt id='4000'>0.81480E+02</wgt>
<wgt id='4001'>0.81752E+02</wgt>
<wgt id='4002'>0.81423E+02</wgt>
<wgt id='4003'>0.81349E+02</wgt>
<wgt id='4004'>0.81598E+02</wgt>
<wgt id='4005'>0.81384E+02</wgt>
<wgt id='4006'>0.81652E+02</wgt>
<wgt id='4007'>0.82193E+02</wgt>
<wgt id='4008'>0.80801E+02</wgt>
<wgt id='4009'>0.81443E+02</wgt>
<wgt id='4010'>0.81374E+02</wgt>
<wgt id='4011'>0.81888E+02</wgt>
<wgt id='4012'>0.81026E+02</wgt>
<wgt id='4013'>0.81748E+02</wgt>
<wgt id='4014'>0.81307E+02</wgt>
<wgt id='4015'>0.81169E+02</wgt>
<wgt id='4016'>0.82163E+02</wgt>
<wgt id='4017'>0.81456E+02</wgt>
<wgt id='4018'>0.81532E+02</wgt>
<wgt id='4019'>0.81759E+02</wgt>
<wgt id='4020'>0.81093E+02</wgt>
<wgt id='4021'>0.81629E+02</wgt>
<wgt id='4022'>0.81205E+02</wgt>
<wgt id='4023'>0.81653E+02</wgt>
<wgt id='4024'>0.81639E+02</wgt>
<wgt id='4025'>0.81589E+02</wgt>
<wgt id='4026'>0.81301E+02</wgt>
<wgt id='4027'>0.81784E+02</wgt>
<wgt id='4028'>0.81233E+02</wgt>
<wgt id='4029'>0.81791E+02</wgt>
<wgt id='4030'>0.80724E+02</wgt>
<wgt id='4031'>0.81213E+02</wgt>
<wgt id='4032'>0.82272E+02</wgt>
<wgt id='4033'>0.81884E+02</wgt>
<wgt id='4034'>0.80893E+02</wgt>
<wgt id='4035'>0.82259E+02</wgt>
<wgt id='4036'>0.80862E+02</wgt>
<wgt id='4037'>0.83350E+02</wgt>
<wgt id='4038'>0.80077E+02</wgt>
<wgt id='4039'>0.83066E+02</wgt>
<wgt id='4040'>0.79927E+02</wgt>
<wgt id='4041'>0.81762E+02</wgt>
<wgt id='4042'>0.81109E+02</wgt>
<wgt id='4043'>0.81106E+02</wgt>
<wgt id='4044'>0.81010E+02</wgt>
<wgt id='4045'>0.82284E+02</wgt>
<wgt id='4046'>0.81076E+02</wgt>
<wgt id='4047'>0.81233E+02</wgt>
<wgt id='4048'>0.81667E+02</wgt>
<wgt id='4049'>0.81517E+02</wgt>
<wgt id='4050'>0.81429E+02</wgt>
<wgt id='4051'>0.82230E+02</wgt>
<wgt id='4052'>0.80912E+02</wgt>
<wgt id='4053'>0.81559E+02</wgt>
<wgt id='4054'>0.80859E+02</wgt>
<wgt id='4055'>0.81865E+02</wgt>
<wgt id='4056'>0.81081E+02</wgt>
<wgt id='4057'>0.80754E+02</wgt>
<wgt id='4058'>0.81976E+02</wgt>
<wgt id='4100'>0.82031E+02</wgt>
<wgt id='4101'>0.81746E+02</wgt>
<wgt id='4102'>0.81224E+02</wgt>
<wgt id='4103'>0.80970E+02</wgt>
<wgt id='4200'>0.79243E+02</wgt>
<wgt id='4201'>0.79234E+02</wgt>
<wgt id='4202'>0.79426E+02</wgt>
<wgt id='4203'>0.78734E+02</wgt>
<wgt id='4204'>0.79570E+02</wgt>
<wgt id='4205'>0.79182E+02</wgt>
<wgt id='4206'>0.79474E+02</wgt>
<wgt id='4207'>0.79500E+02</wgt>
<wgt id='4208'>0.79088E+02</wgt>
<wgt id='4209'>0.79187E+02</wgt>
<wgt id='4210'>0.79343E+02</wgt>
<wgt id='4211'>0.80066E+02</wgt>
<wgt id='4212'>0.78590E+02</wgt>
<wgt id='4213'>0.79437E+02</wgt>
<wgt id='4214'>0.78915E+02</wgt>
<wgt id='4215'>0.79211E+02</wgt>
<wgt id='4216'>0.79230E+02</wgt>
<wgt id='4217'>0.79020E+02</wgt>
<wgt id='4218'>0.79370E+02</wgt>
<wgt id='4219'>0.78514E+02</wgt>
<wgt id='4220'>0.79940E+02</wgt>
<wgt id='4221'>0.78678E+02</wgt>
<wgt id='4222'>0.79964E+02</wgt>
<wgt id='4223'>0.79027E+02</wgt>
<wgt id='4224'>0.78846E+02</wgt>
<wgt id='4225'>0.78155E+02</wgt>
<wgt id='4226'>0.80410E+02</wgt>
<wgt id='4227'>0.79837E+02</wgt>
<wgt id='4228'>0.78737E+02</wgt>
<wgt id='4229'>0.78178E+02</wgt>
<wgt id='4230'>0.80051E+02</wgt>
<wgt id='4231'>0.79341E+02</wgt>
<wgt id='4232'>0.79025E+02</wgt>
<wgt id='4233'>0.79378E+02</wgt>
<wgt id='4234'>0.78735E+02</wgt>
<wgt id='4235'>0.79851E+02</wgt>
<wgt id='4236'>0.78654E+02</wgt>
<wgt id='4237'>0.79963E+02</wgt>
<wgt id='4238'>0.78125E+02</wgt>
<wgt id='4239'>0.79167E+02</wgt>
<wgt id='4240'>0.78649E+02</wgt>
<wgt id='4241'>0.79121E+02</wgt>
<wgt id='4242'>0.79349E+02</wgt>
<wgt id='4243'>0.79337E+02</wgt>
<wgt id='4244'>0.79314E+02</wgt>
<wgt id='4245'>0.78827E+02</wgt>
<wgt id='4246'>0.79465E+02</wgt>
<wgt id='4247'>0.78817E+02</wgt>
<wgt id='4248'>0.79431E+02</wgt>
<wgt id='4249'>0.80344E+02</wgt>
<wgt id='4250'>0.77937E+02</wgt>
<wgt id='4251'>0.79180E+02</wgt>
<wgt id='4252'>0.79197E+02</wgt>
<wgt id='4253'>0.79122E+02</wgt>
<wgt id='4254'>0.79143E+02</wgt>
<wgt id='4255'>0.80118E+02</wgt>
<wgt id='4256'>0.78707E+02</wgt>
<wgt id='4257'>0.77815E+02</wgt>
<wgt id='4258'>0.79659E+02</wgt>
<wgt id='4300'>0.80634E+02</wgt>
<wgt id='4301'>0.80709E+02</wgt>
<wgt id='5000'>0.81846E+02</wgt>
<wgt id='5001'>0.81886E+02</wgt>
<wgt id='5002'>0.81794E+02</wgt>
<wgt id='5003'>0.81864E+02</wgt>
<wgt id='5004'>0.81829E+02</wgt>
<wgt id='5005'>0.81852E+02</wgt>
<wgt id='5006'>0.81836E+02</wgt>
<wgt id='5007'>0.81926E+02</wgt>
<wgt id='5008'>0.81781E+02</wgt>
<wgt id='5009'>0.81947E+02</wgt>
<wgt id='5010'>0.81742E+02</wgt>
<wgt id='5011'>0.82068E+02</wgt>
<wgt id='5012'>0.81632E+02</wgt>
<wgt id='5013'>0.81955E+02</wgt>
<wgt id='5014'>0.81768E+02</wgt>
<wgt id='5015'>0.81438E+02</wgt>
<wgt id='5016'>0.81438E+02</wgt>
<wgt id='5017'>0.82259E+02</wgt>
<wgt id='5018'>0.81567E+02</wgt>
<wgt id='5019'>0.82149E+02</wgt>
<wgt id='5020'>0.81431E+02</wgt>
<wgt id='5021'>0.81950E+02</wgt>
<wgt id='5022'>0.81682E+02</wgt>
<wgt id='5023'>0.81769E+02</wgt>
<wgt id='5024'>0.82031E+02</wgt>
<wgt id='5025'>0.81574E+02</wgt>
<wgt id='5026'>0.82150E+02</wgt>
<wgt id='5027'>0.81892E+02</wgt>
<wgt id='5028'>0.81721E+02</wgt>
<wgt id='5029'>0.82684E+02</wgt>
<wgt id='5030'>0.81373E+02</wgt>
<wgt id='5031'>0.81397E+02</wgt>
<wgt id='5032'>0.83211E+02</wgt>
<wgt id='5033'>0.81816E+02</wgt>
<wgt id='5034'>0.81878E+02</wgt>
<wgt id='5035'>0.81854E+02</wgt>
<wgt id='5036'>0.81837E+02</wgt>
<wgt id='5037'>0.81655E+02</wgt>
<wgt id='5038'>0.81954E+02</wgt>
<wgt id='5039'>0.82041E+02</wgt>
<wgt id='5040'>0.81365E+02</wgt>
<wgt id='5041'>0.81822E+02</wgt>
<wgt id='5042'>0.81874E+02</wgt>
<wgt id='5043'>0.81993E+02</wgt>
<wgt id='5044'>0.81758E+02</wgt>
<wgt id='5045'>0.81874E+02</wgt>
<wgt id='5046'>0.81791E+02</wgt>
<wgt id='5047'>0.81910E+02</wgt>
<wgt id='5048'>0.81566E+02</wgt>
<wgt id='5049'>0.81781E+02</wgt>
<wgt id='5050'>0.82003E+02</wgt>
<wgt id='5051'>0.82037E+02</wgt>
<wgt id='5052'>0.81701E+02</wgt>
<wgt id='5053'>0.81850E+02</wgt>
<wgt id='5054'>0.82036E+02</wgt>
<wgt id='5055'>0.81904E+02</wgt>
<wgt id='5056'>0.81884E+02</wgt>
<wgt id='5057'>0.81542E+02</wgt>
<wgt id='5058'>0.82059E+02</wgt>
<wgt id='5059'>0.81765E+02</wgt>
<wgt id='5060'>0.81901E+02</wgt>
<wgt id='5061'>0.82083E+02</wgt>
<wgt id='5062'>0.81992E+02</wgt>
<wgt id='5063'>0.82139E+02</wgt>
<wgt id='5064'>0.81865E+02</wgt>
<wgt id='5100'>0.81846E+02</wgt>
<wgt id='5101'>0.81845E+02</wgt>
<wgt id='6000'>0.81016E+02</wgt>
<wgt id='6001'>0.80799E+02</wgt>
<wgt id='6002'>0.80755E+02</wgt>
<wgt id='6003'>0.80808E+02</wgt>
<wgt id='6004'>0.81140E+02</wgt>
<wgt id='6005'>0.80615E+02</wgt>
<wgt id='6006'>0.81091E+02</wgt>
<wgt id='6007'>0.80650E+02</wgt>
<wgt id='6008'>0.80988E+02</wgt>
<wgt id='6009'>0.80909E+02</wgt>
<wgt id='6010'>0.80362E+02</wgt>
<wgt id='6011'>0.80971E+02</wgt>
<wgt id='6012'>0.81183E+02</wgt>
<wgt id='6013'>0.80649E+02</wgt>
<wgt id='6014'>0.80773E+02</wgt>
<wgt id='6015'>0.80437E+02</wgt>
<wgt id='6016'>0.81297E+02</wgt>
<wgt id='6017'>0.80713E+02</wgt>
<wgt id='6018'>0.80599E+02</wgt>
<wgt id='6019'>0.81020E+02</wgt>
<wgt id='6020'>0.81204E+02</wgt>
<wgt id='6021'>0.80889E+02</wgt>
<wgt id='6022'>0.81113E+02</wgt>
<wgt id='6023'>0.80983E+02</wgt>
<wgt id='6024'>0.81093E+02</wgt>
<wgt id='6025'>0.81410E+02</wgt>
<wgt id='6026'>0.80893E+02</wgt>
<wgt id='6027'>0.81026E+02</wgt>
<wgt id='6028'>0.80732E+02</wgt>
<wgt id='6029'>0.80884E+02</wgt>
<wgt id='6030'>0.80626E+02</wgt>
<wgt id='6031'>0.80783E+02</wgt>
<wgt id='6032'>0.80990E+02</wgt>
<wgt id='6033'>0.80960E+02</wgt>
<wgt id='6034'>0.81340E+02</wgt>
<wgt id='6035'>0.81064E+02</wgt>
<wgt id='6036'>0.81636E+02</wgt>
<wgt id='6037'>0.81016E+02</wgt>
<wgt id='6038'>0.80971E+02</wgt>
<wgt id='6039'>0.81223E+02</wgt>
<wgt id='6040'>0.81008E+02</wgt>
<wgt id='6041'>0.79573E+02</wgt>
<wgt id='6042'>0.81915E+02</wgt>
<wgt id='7000'>0.80571E+02</wgt>
<wgt id='7001'>0.80002E+02</wgt>
<wgt id='7002'>0.80170E+02</wgt>
<wgt id='7003'>0.80080E+02</wgt>
<wgt id='7004'>0.80093E+02</wgt>
<wgt id='7005'>0.80182E+02</wgt>
<wgt id='7006'>0.79991E+02</wgt>
<wgt id='7007'>0.80567E+02</wgt>
<wgt id='7008'>0.79619E+02</wgt>
<wgt id='7009'>0.79743E+02</wgt>
<wgt id='7010'>0.80442E+02</wgt>
<wgt id='7011'>0.80362E+02</wgt>
<wgt id='7012'>0.79816E+02</wgt>
<wgt id='7013'>0.79983E+02</wgt>
<wgt id='7014'>0.80184E+02</wgt>
<wgt id='7015'>0.80128E+02</wgt>
<wgt id='7016'>0.79860E+02</wgt>
<wgt id='7017'>0.80045E+02</wgt>
<wgt id='7018'>0.80132E+02</wgt>
<wgt id='7019'>0.80156E+02</wgt>
<wgt id='7020'>0.80028E+02</wgt>
<wgt id='7021'>0.80621E+02</wgt>
<wgt id='7022'>0.79546E+02</wgt>
<wgt id='7023'>0.79408E+02</wgt>
<wgt id='7024'>0.80771E+02</wgt>
<wgt id='7025'>0.78867E+02</wgt>
<wgt id='7026'>0.81228E+02</wgt>
<wgt id='7027'>0.79577E+02</wgt>
<wgt id='7028'>0.80662E+02</wgt>
<wgt id='8000'>0.80230E+02</wgt>
<wgt id='8001'>0.80219E+02</wgt>
<wgt id='8002'>0.80254E+02</wgt>
<wgt id='8003'>0.80231E+02</wgt>
<wgt id='8004'>0.80227E+02</wgt>
<wgt id='8005'>0.80074E+02</wgt>
<wgt id='8006'>0.80316E+02</wgt>
<wgt id='8007'>0.80384E+02</wgt>
<wgt id='8008'>0.80408E+02</wgt>
<wgt id='8009'>0.80571E+02</wgt>
<wgt id='8010'>0.80141E+02</wgt>
<wgt id='8011'>0.80251E+02</wgt>
<wgt id='8012'>0.79939E+02</wgt>
<wgt id='8013'>0.80067E+02</wgt>
<wgt id='8014'>0.80424E+02</wgt>
<wgt id='8015'>0.80180E+02</wgt>
<wgt id='8016'>0.80325E+02</wgt>
<wgt id='8017'>0.80305E+02</wgt>
<wgt id='8018'>0.80470E+02</wgt>
<wgt id='8019'>0.80199E+02</wgt>
<wgt id='8020'>0.80324E+02</wgt>
<wgt id='8021'>0.80125E+02</wgt>
<wgt id='8022'>0.80393E+02</wgt>
<wgt id='8023'>0.80054E+02</wgt>
<wgt id='8024'>0.79850E+02</wgt>
<wgt id='8025'>0.80034E+02</wgt>
<wgt id='8026'>0.80295E+02</wgt>
<wgt id='8027'>0.80318E+02</wgt>
<wgt id='8028'>0.80277E+02</wgt>
<wgt id='8029'>0.80770E+02</wgt>
<wgt id='3000'>0.81104E+02</wgt>
<wgt id='3001'>0.80028E+02</wgt>
<wgt id='3002'>0.80275E+02</wgt>
<wgt id='3003'>0.81000E+02</wgt>
<wgt id='3004'>0.82269E+02</wgt>
<wgt id='3005'>0.82571E+02</wgt>
<wgt id='3006'>0.82031E+02</wgt>
<wgt id='3007'>0.79765E+02</wgt>
<wgt id='3008'>0.80415E+02</wgt>
<wgt id='3009'>0.80722E+02</wgt>
<wgt id='3010'>0.83255E+02</wgt>
<wgt id='3011'>0.81035E+02</wgt>
<wgt id='3012'>0.80826E+02</wgt>
<wgt id='3013'>0.79069E+02</wgt>
<wgt id='3014'>0.80963E+02</wgt>
<wgt id='3015'>0.79820E+02</wgt>
<wgt id='3016'>0.81685E+02</wgt>
<wgt id='3017'>0.82664E+02</wgt>
<wgt id='3018'>0.80651E+02</wgt>
<wgt id='3019'>0.80228E+02</wgt>
<wgt id='3020'>0.80924E+02</wgt>
<wgt id='3021'>0.78239E+02</wgt>
<wgt id='3022'>0.79674E+02</wgt>
<wgt id='3023'>0.80108E+02</wgt>
<wgt id='3024'>0.81637E+02</wgt>
<wgt id='3025'>0.80321E+02</wgt>
<wgt id='3026'>0.80026E+02</wgt>
<wgt id='3027'>0.81191E+02</wgt>
<wgt id='3028'>0.79922E+02</wgt>
<wgt id='3029'>0.82023E+02</wgt>
<wgt id='3030'>0.81197E+02</wgt>
<wgt id='3031'>0.79686E+02</wgt>
<wgt id='3032'>0.79187E+02</wgt>
<wgt id='3033'>0.80552E+02</wgt>
<wgt id='3034'>0.82926E+02</wgt>
<wgt id='3035'>0.79503E+02</wgt>
<wgt id='3036'>0.79328E+02</wgt>
<wgt id='3037'>0.79457E+02</wgt>
<wgt id='3038'>0.81891E+02</wgt>
<wgt id='3039'>0.78278E+02</wgt>
<wgt id='3040'>0.81745E+02</wgt>
<wgt id='3041'>0.82222E+02</wgt>
<wgt id='3042'>0.82001E+02</wgt>
<wgt id='3043'>0.82351E+02</wgt>
<wgt id='3044'>0.82377E+02</wgt>
<wgt id='3045'>0.81997E+02</wgt>
<wgt id='3046'>0.81685E+02</wgt>
<wgt id='3047'>0.80784E+02</wgt>
<wgt id='3048'>0.81940E+02</wgt>
<wgt id='3049'>0.79168E+02</wgt>
<wgt id='3050'>0.80605E+02</wgt>
<wgt id='3051'>0.79982E+02</wgt>
<wgt id='3052'>0.79909E+02</wgt>
<wgt id='3053'>0.81816E+02</wgt>
<wgt id='3054'>0.78906E+02</wgt>
<wgt id='3055'>0.81776E+02</wgt>
<wgt id='3056'>0.81377E+02</wgt>
<wgt id='3057'>0.79696E+02</wgt>
<wgt id='3058'>0.82037E+02</wgt>
<wgt id='3059'>0.81827E+02</wgt>
<wgt id='3060'>0.80179E+02</wgt>
<wgt id='3061'>0.80154E+02</wgt>
<wgt id='3062'>0.81001E+02</wgt>
<wgt id='3063'>0.81265E+02</wgt>
<wgt id='3064'>0.82496E+02</wgt>
<wgt id='3065'>0.79989E+02</wgt>
<wgt id='3066'>0.82825E+02</wgt>
<wgt id='3067'>0.80154E+02</wgt>
<wgt id='3068'>0.80864E+02</wgt>
<wgt id='3069'>0.81118E+02</wgt>
<wgt id='3070'>0.81369E+02</wgt>
<wgt id='3071'>0.81066E+02</wgt>
<wgt id='3072'>0.80264E+02</wgt>
<wgt id='3073'>0.81832E+02</wgt>
<wgt id='3074'>0.80722E+02</wgt>
<wgt id='3075'>0.81981E+02</wgt>
<wgt id='3076'>0.82674E+02</wgt>
<wgt id='3077'>0.82232E+02</wgt>
<wgt id='3078'>0.78755E+02</wgt>
<wgt id='3079'>0.81179E+02</wgt>
<wgt id='3080'>0.83116E+02</wgt>
<wgt id='3081'>0.81746E+02</wgt>
<wgt id='3082'>0.81685E+02</wgt>
<wgt id='3083'>0.81907E+02</wgt>
<wgt id='3084'>0.80987E+02</wgt>
<wgt id='3085'>0.79691E+02</wgt>
<wgt id='3086'>0.82225E+02</wgt>
<wgt id='3087'>0.80730E+02</wgt>
<wgt id='3088'>0.82473E+02</wgt>
<wgt id='3089'>0.85024E+02</wgt>
<wgt id='3090'>0.82378E+02</wgt>
<wgt id='3091'>0.81607E+02</wgt>
<wgt id='3092'>0.82126E+02</wgt>
<wgt id='3093'>0.81879E+02</wgt>
<wgt id='3094'>0.82079E+02</wgt>
<wgt id='3095'>0.80493E+02</wgt>
<wgt id='3096'>0.80537E+02</wgt>
<wgt id='3097'>0.83712E+02</wgt>
<wgt id='3098'>0.82207E+02</wgt>
<wgt id='3099'>0.80499E+02</wgt>
<wgt id='3100'>0.81110E+02</wgt>
<wgt id='3200'>0.79299E+02</wgt>
<wgt id='3201'>0.79490E+02</wgt>
<wgt id='3202'>0.77620E+02</wgt>
<wgt id='3203'>0.79676E+02</wgt>
<wgt id='3204'>0.78407E+02</wgt>
<wgt id='3205'>0.79456E+02</wgt>
<wgt id='3206'>0.80543E+02</wgt>
<wgt id='3207'>0.80407E+02</wgt>
<wgt id='3208'>0.79715E+02</wgt>
<wgt id='3209'>0.79070E+02</wgt>
<wgt id='3210'>0.79404E+02</wgt>
<wgt id='3211'>0.79858E+02</wgt>
<wgt id='3212'>0.79375E+02</wgt>
<wgt id='3213'>0.79456E+02</wgt>
<wgt id='3214'>0.78909E+02</wgt>
<wgt id='3215'>0.79487E+02</wgt>
<wgt id='3216'>0.80035E+02</wgt>
<wgt id='3217'>0.79719E+02</wgt>
<wgt id='3218'>0.80233E+02</wgt>
<wgt id='3219'>0.79366E+02</wgt>
<wgt id='3220'>0.78546E+02</wgt>
<wgt id='3221'>0.79419E+02</wgt>
<wgt id='3222'>0.80264E+02</wgt>
<wgt id='3223'>0.80370E+02</wgt>
<wgt id='3224'>0.79057E+02</wgt>
<wgt id='3225'>0.80352E+02</wgt>
<wgt id='3226'>0.78609E+02</wgt>
<wgt id='3227'>0.78391E+02</wgt>
<wgt id='3228'>0.78341E+02</wgt>
<wgt id='3229'>0.80188E+02</wgt>
<wgt id='3230'>0.79596E+02</wgt>
<wgt id='3231'>0.79376E+02</wgt>
<wgt id='3232'>0.79595E+02</wgt>
<wgt id='3233'>0.79643E+02</wgt>
<wgt id='3234'>0.78434E+02</wgt>
<wgt id='3235'>0.79442E+02</wgt>
<wgt id='3236'>0.79010E+02</wgt>
<wgt id='3237'>0.79536E+02</wgt>
<wgt id='3238'>0.78160E+02</wgt>
<wgt id='3239'>0.79043E+02</wgt>
<wgt id='3240'>0.78316E+02</wgt>
<wgt id='3241'>0.80260E+02</wgt>
<wgt id='3242'>0.78991E+02</wgt>
<wgt id='3243'>0.79148E+02</wgt>
<wgt id='3244'>0.79178E+02</wgt>
<wgt id='3245'>0.79693E+02</wgt>
<wgt id='3246'>0.77609E+02</wgt>
<wgt id='3247'>0.79028E+02</wgt>
<wgt id='3248'>0.78857E+02</wgt>
<wgt id='3249'>0.78189E+02</wgt>
<wgt id='3250'>0.79701E+02</wgt>
<wgt id='3251'>0.78879E+02</wgt>
<wgt id='3252'>0.79838E+02</wgt>
<wgt id='3253'>0.79044E+02</wgt>
<wgt id='3254'>0.79170E+02</wgt>
<wgt id='3255'>0.78693E+02</wgt>
<wgt id='3256'>0.79629E+02</wgt>
<wgt id='3257'>0.79375E+02</wgt>
<wgt id='3258'>0.78893E+02</wgt>
<wgt id='3259'>0.78420E+02</wgt>
<wgt id='3260'>0.79095E+02</wgt>
<wgt id='3261'>0.78888E+02</wgt>
<wgt id='3262'>0.79868E+02</wgt>
<wgt id='3263'>0.80292E+02</wgt>
<wgt id='3264'>0.79223E+02</wgt>
<wgt id='3265'>0.79687E+02</wgt>
<wgt id='3266'>0.79536E+02</wgt>
<wgt id='3267'>0.79151E+02</wgt>
<wgt id='3268'>0.78982E+02</wgt>
<wgt id='3269'>0.79340E+02</wgt>
<wgt id='3270'>0.80466E+02</wgt>
<wgt id='3271'>0.79586E+02</wgt>
<wgt id='3272'>0.79559E+02</wgt>
<wgt id='3273'>0.79192E+02</wgt>
<wgt id='3274'>0.78470E+02</wgt>
<wgt id='3275'>0.79857E+02</wgt>
<wgt id='3276'>0.78644E+02</wgt>
<wgt id='3277'>0.79384E+02</wgt>
<wgt id='3278'>0.79699E+02</wgt>
<wgt id='3279'>0.79679E+02</wgt>
<wgt id='3280'>0.79127E+02</wgt>
<wgt id='3281'>0.79621E+02</wgt>
<wgt id='3282'>0.79529E+02</wgt>
<wgt id='3283'>0.79309E+02</wgt>
<wgt id='3284'>0.79185E+02</wgt>
<wgt id='3285'>0.79106E+02</wgt>
<wgt id='3286'>0.78278E+02</wgt>
<wgt id='3287'>0.80217E+02</wgt>
<wgt id='3288'>0.79167E+02</wgt>
<wgt id='3289'>0.80424E+02</wgt>
<wgt id='3290'>0.78734E+02</wgt>
<wgt id='3291'>0.78130E+02</wgt>
<wgt id='3292'>0.79376E+02</wgt>
<wgt id='3293'>0.79216E+02</wgt>
<wgt id='3294'>0.78897E+02</wgt>
<wgt id='3295'>0.79198E+02</wgt>
<wgt id='3296'>0.80080E+02</wgt>
<wgt id='3297'>0.79210E+02</wgt>
<wgt id='3298'>0.78502E+02</wgt>
<wgt id='3299'>0.79530E+02</wgt>
<wgt id='3300'>0.79941E+02</wgt>
<wgt id='3301'>0.77793E+02</wgt>
<wgt id='3302'>0.80487E+02</wgt>
<wgt id='3400'>0.78611E+02</wgt>
<wgt id='3401'>0.78656E+02</wgt>
<wgt id='3402'>0.77231E+02</wgt>
<wgt id='3403'>0.79324E+02</wgt>
<wgt id='3404'>0.79981E+02</wgt>
<wgt id='3405'>0.78928E+02</wgt>
<wgt id='3406'>0.79891E+02</wgt>
<wgt id='3407'>0.78665E+02</wgt>
<wgt id='3408'>0.79571E+02</wgt>
<wgt id='3409'>0.79442E+02</wgt>
<wgt id='3410'>0.79124E+02</wgt>
<wgt id='3411'>0.79977E+02</wgt>
<wgt id='3412'>0.79492E+02</wgt>
<wgt id='3413'>0.78490E+02</wgt>
<wgt id='3414'>0.77813E+02</wgt>
<wgt id='3415'>0.78271E+02</wgt>
<wgt id='3416'>0.78014E+02</wgt>
<wgt id='3417'>0.79038E+02</wgt>
<wgt id='3418'>0.77789E+02</wgt>
<wgt id='3419'>0.77923E+02</wgt>
<wgt id='3420'>0.78222E+02</wgt>
<wgt id='3421'>0.78146E+02</wgt>
<wgt id='3422'>0.78601E+02</wgt>
<wgt id='3423'>0.79214E+02</wgt>
<wgt id='3424'>0.79248E+02</wgt>
<wgt id='3425'>0.78216E+02</wgt>
<wgt id='3426'>0.78159E+02</wgt>
<wgt id='3427'>0.77833E+02</wgt>
<wgt id='3428'>0.79325E+02</wgt>
<wgt id='3429'>0.77864E+02</wgt>
<wgt id='3430'>0.78581E+02</wgt>
<wgt id='3431'>0.78886E+02</wgt>
<wgt id='3432'>0.79568E+02</wgt>
<wgt id='3433'>0.78045E+02</wgt>
<wgt id='3434'>0.79301E+02</wgt>
<wgt id='3435'>0.79312E+02</wgt>
<wgt id='3436'>0.78315E+02</wgt>
<wgt id='3437'>0.79417E+02</wgt>
<wgt id='3438'>0.77905E+02</wgt>
<wgt id='3439'>0.77510E+02</wgt>
<wgt id='3440'>0.78811E+02</wgt>
<wgt id='3441'>0.78498E+02</wgt>
<wgt id='3442'>0.77441E+02</wgt>
<wgt id='3443'>0.78953E+02</wgt>
<wgt id='3444'>0.77865E+02</wgt>
<wgt id='3445'>0.78246E+02</wgt>
<wgt id='3446'>0.78595E+02</wgt>
<wgt id='3447'>0.78780E+02</wgt>
<wgt id='3448'>0.80094E+02</wgt>
<wgt id='3449'>0.79232E+02</wgt>
<wgt id='3450'>0.78381E+02</wgt>
<wgt id='3451'>0.79489E+02</wgt>
<wgt id='3452'>0.78449E+02</wgt>
<wgt id='3453'>0.77411E+02</wgt>
<wgt id='3454'>0.78508E+02</wgt>
<wgt id='3455'>0.79243E+02</wgt>
<wgt id='3456'>0.78696E+02</wgt>
<wgt id='3457'>0.79239E+02</wgt>
<wgt id='3458'>0.78325E+02</wgt>
<wgt id='3459'>0.78545E+02</wgt>
<wgt id='3460'>0.78408E+02</wgt>
<wgt id='3461'>0.77539E+02</wgt>
<wgt id='3462'>0.78829E+02</wgt>
<wgt id='3463'>0.77511E+02</wgt>
<wgt id='3464'>0.79016E+02</wgt>
<wgt id='3465'>0.79365E+02</wgt>
<wgt id='3466'>0.78963E+02</wgt>
<wgt id='3467'>0.78261E+02</wgt>
<wgt id='3468'>0.78032E+02</wgt>
<wgt id='3469'>0.77991E+02</wgt>
<wgt id='3470'>0.78124E+02</wgt>
<wgt id='3471'>0.78319E+02</wgt>
<wgt id='3472'>0.77395E+02</wgt>
<wgt id='3473'>0.79900E+02</wgt>
<wgt id='3474'>0.78036E+02</wgt>
<wgt id='3475'>0.79142E+02</wgt>
<wgt id='3476'>0.78468E+02</wgt>
<wgt id='3477'>0.77865E+02</wgt>
<wgt id='3478'>0.79728E+02</wgt>
<wgt id='3479'>0.78702E+02</wgt>
<wgt id='3480'>0.78996E+02</wgt>
<wgt id='3481'>0.79304E+02</wgt>
<wgt id='3482'>0.78880E+02</wgt>
<wgt id='3483'>0.78345E+02</wgt>
<wgt id='3484'>0.77899E+02</wgt>
<wgt id='3485'>0.78142E+02</wgt>
<wgt id='3486'>0.76639E+02</wgt>
<wgt id='3487'>0.78299E+02</wgt>
<wgt id='3488'>0.78752E+02</wgt>
<wgt id='3489'>0.77577E+02</wgt>
<wgt id='3490'>0.79353E+02</wgt>
<wgt id='3491'>0.79850E+02</wgt>
<wgt id='3492'>0.78344E+02</wgt>
<wgt id='3493'>0.79493E+02</wgt>
<wgt id='3494'>0.76630E+02</wgt>
<wgt id='3495'>0.78954E+02</wgt>
<wgt id='3496'>0.77828E+02</wgt>
<wgt id='3497'>0.78329E+02</wgt>
<wgt id='3498'>0.79699E+02</wgt>
<wgt id='3499'>0.78125E+02</wgt>
<wgt id='3500'>0.79880E+02</wgt>
</rwgt>
</event>
<event>
     13 322200  8.11039E+01  1.24703E+01 -1.00000E+00  1.81679E-01
      21    -1     0     0   504   505  0.000000000E+00  0.000000000E+00  1.051665145E+02  1.051665145E+02  0.000000000E+00  0.00000E+00  9.000E+00
      21    -1     0     0   502   503  0.000000000E+00  0.000000000E+00 -6.274944160E+02  6.274944160E+02  0.000000000E+00  0.00000E+00  9.000E+00
       6     2     1     2   502     0 -2.637747755E+01 -1.028352396E+02 -4.417948486E+02  4.857758075E+02  1.718272071E+02  0.00000E+00  9.000E+00
      -6     2     1     2     0   505  3.759678585E+01  1.082791108E+02 -5.154558021E+01  2.153291064E+02  1.748479141E+02  0.00000E+00  9.000E+00
      21     1     1     2   504   503 -1.121930831E+01 -5.443871209E+00 -2.898747277E+01  3.155601671E+01  3.371747881E-07  0.00000E+00  9.000E+00
      24     2     3     3     0     0 -1.287843638E+01 -8.351968165E+01 -4.466412065E+02  4.611911440E+02  7.789424007E+01  0.00000E+00  9.000E+00
       5     1     3     3   502     0 -1.349904117E+01 -1.931555791E+01  4.846357967E+00  2.458466342E+01  5.060000000E+00  0.00000E+00 -1.000E+00
     -24     2     4     4     0     0  7.431110808E+01  1.216408948E+02 -6.110899205E+01  1.747884949E+02  8.061055133E+01  0.00000E+00  9.000E+00
      -5     1     4     4     0   505 -3.671432223E+01 -1.336178401E+01  9.563411835E+00  4.054061142E+01  5.060000000E+00  0.00000E+00  1.000E+00
     -11     1     6     6     0     0 -4.573947036E+01 -4.829982207E+01 -2.736133084E+02  2.815834059E+02  5.100000000E-04  0.00000E+00  1.000E+00
      12     1     6     6     0     0  3.286103398E+01 -3.521985958E+01 -1.730278981E+02  1.796077381E+02  0.000000000E+00  0.00000E+00 -1.000E+00
      13     1     8     8     0     0 -2.808112976E+00  4.948557632E+00 -3.124995630E+01  3.176388929E+01  1.057000000E-01  0.00000E+00 -1.000E+00
     -14     1     8     8     0     0  7.711922106E+01  1.166923372E+02 -2.985903574E+01  1.430246057E+02  0.000000000E+00  0.00000E+00  1.000E+00
#rwgt            1           1   641.08523514248839               10       35471           0
<rwgt>
<wgt id='1001'>0.81104E+02</wgt>
<wgt id='1002'>0.79513E+02</wgt>
<wgt id='1003'>0.82664E+02</wgt>
<wgt id='1004'>0.70574E+02</wgt>
<wgt id='1005'>0.68863E+02</wgt>
<wgt id='1006'>0.72279E+02</wgt>
<wgt id='1007'>0.94034E+02</wgt>
<wgt id='1008'>0.92756E+02</wgt>
<wgt id='1009'>0.95238E+02</wgt>
<wgt id='2000'>0.81104E+02</wgt>
<wgt id='2001'>0.81022E+02</wgt>
<wgt id='2002'>0.80943E+02</wgt>
<wgt id='2003'>0.81235E+02</wgt>
<wgt id='2004'>0.81272E+02</wgt>
<wgt id='2005'>0.81078E+02</wgt>
<wgt id='2006'>0.81260E+02</wgt>
<wgt id='2007'>0.81233E+02</wgt>
<wgt id='2008'>0.81326E+02</wgt>
<wgt id='2009'>0.81022E+02</wgt>
<wgt id='2010'>0.81040E+02</wgt>
<wgt id='2011'>0.80980E+02</wgt>
<wgt id='2012'>0.81185E+02</wgt>
<wgt id='2013'>0.81149E+02</wgt>
<wgt id='2014'>0.81233E+02</wgt>
<wgt id='2015'>0.81211E+02</wgt>
<wgt id='2016'>0.81150E+02</wgt>
<wgt id='2017'>0.81217E+02</wgt>
<wgt id='2018'>0.81160E+02</wgt>
<wgt id='2019'>0.80815E+02</wgt>
<wgt id='2020'>0.81171E+02</wgt>
<wgt id='2021'>0.80988E+02</wgt>
<wgt id='2022'>0.81221E+02</wgt>
<wgt id='2023'>0.81277E+02</wgt>
<wgt id='2024'>0.80937E+02</wgt>
<wgt id='2025'>0.81021E+02</wgt>
<wgt id='2026'>0.80985E+02</wgt>
<wgt id='2027'>0.80894E+02</wgt>
<wgt id='2028'>0.81170E+02</wgt>
<wgt id='2029'>0.80776E+02</wgt>
<wgt id='2030'>0.81132E+02</wgt>
<wgt id='2031'>0.80813E+02</wgt>
<wgt id='2032'>0.81157E+02</wgt>
<wgt id='2033'>0.80990E+02</wgt>
<wgt id='2034'>0.80937E+02</wgt>
<wgt id='2035'>0.81104E+02</wgt>
<wgt id='2036'>0.81281E+02</wgt>
<wgt id='2037'>0.81090E+02</wgt>
<wgt id='2038'>0.81042E+02</wgt>
<wgt id='2039'>0.81068E+02</wgt>
<wgt id='2040'>0.81072E+02</wgt>
<wgt id='2041'>0.81062E+02</wgt>
<wgt id='2042'>0.81196E+02</wgt>
<wgt id='2043'>0.81036E+02</wgt>
<wgt id='2044'>0.81170E+02</wgt>
<wgt id='2045'>0.81089E+02</wgt>
<wgt id='2046'>0.81103E+02</wgt>
<wgt id='2047'>0.81097E+02</wgt>
<wgt id='2048'>0.81085E+02</wgt>
<wgt id='2049'>0.81040E+02</wgt>
<wgt id='2050'>0.81074E+02</wgt>
<wgt id='2051'>0.81083E+02</wgt>
<wgt id='2052'>0.81170E+02</wgt>
<wgt id='2053'>0.81094E+02</wgt>
<wgt id='2054'>0.81098E+02</wgt>
<wgt id='2055'>0.81117E+02</wgt>
<wgt id='2056'>0.81042E+02</wgt>
<wgt id='2057'>0.81134E+02</wgt>
<wgt id='2058'>0.81122E+02</wgt>
<wgt id='2059'>0.81090E+02</wgt>
<wgt id='2060'>0.81102E+02</wgt>
<wgt id='2061'>0.81084E+02</wgt>
<wgt id='2062'>0.81163E+02</wgt>
<wgt id='2063'>0.81120E+02</wgt>
<wgt id='2064'>0.81114E+02</wgt>
<wgt id='2065'>0.81173E+02</wgt>
<wgt id='2066'>0.81090E+02</wgt>
<wgt id='2067'>0.81119E+02</wgt>
<wgt id='2068'>0.81126E+02</wgt>
<wgt id='2069'>0.81105E+02</wgt>
<wgt id='2070'>0.81111E+02</wgt>
<wgt id='2071'>0.81099E+02</wgt>
<wgt id='2072'>0.81100E+02</wgt>
<wgt id='2073'>0.81117E+02</wgt>
<wgt id='2074'>0.81090E+02</wgt>
<wgt id='2075'>0.81088E+02</wgt>
<wgt id='2076'>0.81085E+02</wgt>
<wgt id='2077'>0.81150E+02</wgt>
<wgt id='2078'>0.81113E+02</wgt>
<wgt id='2079'>0.81087E+02</wgt>
<wgt id='2080'>0.81119E+02</wgt>
<wgt id='2081'>0.81095E+02</wgt>
<wgt id='2082'>0.81113E+02</wgt>
<wgt id='2083'>0.81135E+02</wgt>
<wgt id='2084'>0.81108E+02</wgt>
<wgt id='2085'>0.81107E+02</wgt>
<wgt id='2086'>0.81089E+02</wgt>
<wgt id='2087'>0.81116E+02</wgt>
<wgt id='2088'>0.81098E+02</wgt>
<wgt id='2089'>0.81092E+02</wgt>
<wgt id='2090'>0.81118E+02</wgt>
<wgt id='2091'>0.81105E+02</wgt>
<wgt id='2092'>0.81128E+02</wgt>
<wgt id='2093'>0.81088E+02</wgt>
<wgt id='2094'>0.81109E+02</wgt>
<wgt id='2095'>0.81122E+02</wgt>
<wgt id='2096'>0.81092E+02</wgt>
<wgt id='2097'>0.81116E+02</wgt>
<wgt id='2098'>0.81100E+02</wgt>
<wgt id='2099'>0.81116E+02</wgt>
<wgt id='2100'>0.81104E+02</wgt>
<wgt id='2101'>0.78963E+02</wgt>
<wgt id='2102'>0.83413E+02</wgt>
<wgt id='2200'>0.81181E+02</wgt>
<wgt id='2201'>0.70654E+02</wgt>
<wgt id='2202'>0.72771E+02</wgt>
<wgt id='2203'>0.74759E+02</wgt>
<wgt id='2204'>0.76692E+02</wgt>
<wgt id='2205'>0.80167E+02</wgt>
<wgt id='2206'>0.82376E+02</wgt>
<wgt id='2207'>0.85434E+02</wgt>
<wgt id='2208'>0.87592E+02</wgt>
<wgt id='2300'>0.84867E+02</wgt>
<wgt id='2301'>0.84996E+02</wgt>
<wgt id='2302'>0.84735E+02</wgt>
<wgt id='2303'>0.84888E+02</wgt>
<wgt id='2304'>0.85112E+02</wgt>
<wgt id='2305'>0.84948E+02</wgt>
<wgt id='2306'>0.84834E+02</wgt>
<wgt id='2307'>0.84967E+02</wgt>
<wgt id='2308'>0.84803E+02</wgt>
<wgt id='2309'>0.84996E+02</wgt>
<wgt id='2310'>0.84718E+02</wgt>
<wgt id='2311'>0.84785E+02</wgt>
<wgt id='2312'>0.84990E+02</wgt>
<wgt id='2313'>0.84822E+02</wgt>
<wgt id='2314'>0.84909E+02</wgt>
<wgt id='2315'>0.84847E+02</wgt>
<wgt id='2316'>0.84886E+02</wgt>
<wgt id='2317'>0.84879E+02</wgt>
<wgt id='2318'>0.84908E+02</wgt>
<wgt id='2319'>0.84947E+02</wgt>
<wgt id='2320'>0.84992E+02</wgt>
<wgt id='2321'>0.84981E+02</wgt>
<wgt id='2322'>0.84864E+02</wgt>
<wgt id='2323'>0.84904E+02</wgt>
<wgt id='2324'>0.84935E+02</wgt>
<wgt id='2325'>0.84975E+02</wgt>
<wgt id='2326'>0.84728E+02</wgt>
<wgt id='2327'>0.84922E+02</wgt>
<wgt id='2328'>0.84843E+02</wgt>
<wgt id='2329'>0.84645E+02</wgt>
<wgt id='2330'>0.85375E+02</wgt>
<wgt id='2331'>0.85120E+02</wgt>
<wgt id='2332'>0.84807E+02</wgt>
<wgt id='2333'>0.84975E+02</wgt>
<wgt id='2334'>0.84827E+02</wgt>
<wgt id='2335'>0.85232E+02</wgt>
<wgt id='2336'>0.84996E+02</wgt>
<wgt id='2337'>0.84824E+02</wgt>
<wgt id='2338'>0.84895E+02</wgt>
<wgt id='2339'>0.85005E+02</wgt>
<wgt id='2340'>0.84728E+02</wgt>
<wgt id='2341'>0.84884E+02</wgt>
<wgt id='2342'>0.84767E+02</wgt>
<wgt id='2343'>0.84710E+02</wgt>
<wgt id='2344'>0.84961E+02</wgt>
<wgt id='2345'>0.84952E+02</wgt>
<wgt id='2346'>0.84991E+02</wgt>
<wgt id='2347'>0.84867E+02</wgt>
<wgt id='2348'>0.84867E+02</wgt>
<wgt id='2349'>0.84825E+02</wgt>
<wgt id='2350'>0.84760E+02</wgt>
<wgt id='2351'>0.85019E+02</wgt>
<wgt id='2352'>0.84819E+02</wgt>
<wgt id='2353'>0.84862E+02</wgt>
<wgt id='2354'>0.84889E+02</wgt>
<wgt id='2355'>0.84818E+02</wgt>
<wgt id='2356'>0.84892E+02</wgt>
<wgt id='2357'>0.84878E+02</wgt>
<wgt id='2358'>0.84803E+02</wgt>
<wgt id='2359'>0.84888E+02</wgt>
<wgt id='2360'>0.84909E+02</wgt>
<wgt id='2361'>0.84932E+02</wgt>
<wgt id='2362'>0.84897E+02</wgt>
<wgt id='2363'>0.84887E+02</wgt>
<wgt id='2364'>0.84848E+02</wgt>
<wgt id='2365'>0.84863E+02</wgt>
<wgt id='2366'>0.84895E+02</wgt>
<wgt id='2367'>0.84803E+02</wgt>
<wgt id='2368'>0.84884E+02</wgt>
<wgt id='2369'>0.84816E+02</wgt>
<wgt id='2370'>0.84840E+02</wgt>
<wgt id='2371'>0.84856E+02</wgt>
<wgt id='2372'>0.84903E+02</wgt>
<wgt id='2373'>0.84853E+02</wgt>
<wgt id='2374'>0.84903E+02</wgt>
<wgt id='2375'>0.84892E+02</wgt>
<wgt id='2376'>0.84863E+02</wgt>
<wgt id='2377'>0.84859E+02</wgt>
<wgt id='2378'>0.84903E+02</wgt>
<wgt id='2379'>0.84843E+02</wgt>
<wgt id='2380'>0.84847E+02</wgt>
<wgt id='2381'>0.84853E+02</wgt>
<wgt id='2382'>0.84855E+02</wgt>
<wgt id='2383'>0.84864E+02</wgt>
<wgt id='2384'>0.84846E+02</wgt>
<wgt id='2385'>0.84888E+02</wgt>
<wgt id='2386'>0.84873E+02</wgt>
<wgt id='2387'>0.84857E+02</wgt>
<wgt id='2388'>0.84849E+02</wgt>
<wgt id='2389'>0.84873E+02</wgt>
<wgt id='2390'>0.84876E+02</wgt>
<wgt id='2391'>0.84858E+02</wgt>
<wgt id='2392'>0.84855E+02</wgt>
<wgt id='2393'>0.84878E+02</wgt>
<wgt id='2394'>0.84880E+02</wgt>
<wgt id='2395'>0.84871E+02</wgt>
<wgt id='2396'>0.84845E+02</wgt>
<wgt id='2397'>0.84849E+02</wgt>
<wgt id='2398'>0.84847E+02</wgt>
<wgt id='2399'>0.84876E+02</wgt>
<wgt id='2400'>0.84878E+02</wgt>
<wgt id='2401'>0.82569E+02</wgt>
<wgt id='2402'>0.87119E+02</wgt>
<wgt id='2500'>0.80991E+02</wgt>
<wgt id='2501'>0.85904E+02</wgt>
<wgt id='2600'>0.78525E+02</wgt>
<wgt id='2601'>0.78425E+02</wgt>
<wgt id='2602'>0.78550E+02</wgt>
<wgt id='2603'>0.78497E+02</wgt>
<wgt id='2604'>0.78602E+02</wgt>
<wgt id='2605'>0.78428E+02</wgt>
<wgt id='2606'>0.78441E+02</wgt>
<wgt id='2607'>0.78614E+02</wgt>
<wgt id='2608'>0.78531E+02</wgt>
<wgt id='2609'>0.78461E+02</wgt>
<wgt id='2610'>0.78475E+02</wgt>
<wgt id='2611'>0.78477E+02</wgt>
<wgt id='2612'>0.78691E+02</wgt>
<wgt id='2613'>0.78500E+02</wgt>
<wgt id='2614'>0.78481E+02</wgt>
<wgt id='2615'>0.78357E+02</wgt>
<wgt id='2616'>0.78521E+02</wgt>
<wgt id='2617'>0.78358E+02</wgt>
<wgt id='2618'>0.78379E+02</wgt>
<wgt id='2619'>0.78584E+02</wgt>
<wgt id='2620'>0.78490E+02</wgt>
<wgt id='2621'>0.78550E+02</wgt>
<wgt id='2622'>0.78755E+02</wgt>
<wgt id='2623'>0.78522E+02</wgt>
<wgt id='2624'>0.78521E+02</wgt>
<wgt id='2625'>0.78470E+02</wgt>
<wgt id='2626'>0.78511E+02</wgt>
<wgt id='2627'>0.78520E+02</wgt>
<wgt id='2628'>0.78538E+02</wgt>
<wgt id='2629'>0.78535E+02</wgt>
<wgt id='2630'>0.78562E+02</wgt>
<wgt id='2631'>0.78442E+02</wgt>
<wgt id='2632'>0.78540E+02</wgt>
<wgt id='2633'>0.78489E+02</wgt>
<wgt id='2634'>0.78471E+02</wgt>
<wgt id='2635'>0.78518E+02</wgt>
<wgt id='2636'>0.78509E+02</wgt>
<wgt id='2637'>0.78537E+02</wgt>
<wgt id='2638'>0.78558E+02</wgt>
<wgt id='2639'>0.78526E+02</wgt>
<wgt id='2640'>0.78519E+02</wgt>
<wgt id='2641'>0.78548E+02</wgt>
<wgt id='2642'>0.78541E+02</wgt>
<wgt id='2643'>0.78526E+02</wgt>
<wgt id='2644'>0.78518E+02</wgt>
<wgt id='2645'>0.78528E+02</wgt>
<wgt id='2646'>0.78543E+02</wgt>
<wgt id='2647'>0.78525E+02</wgt>
<wgt id='2648'>0.78522E+02</wgt>
<wgt id='2649'>0.78526E+02</wgt>
<wgt id='2650'>0.78525E+02</wgt>
<wgt id='2651'>0.77145E+02</wgt>
<wgt id='2652'>0.79771E+02</wgt>
<wgt id='2700'>0.75868E+02</wgt>
<wgt id='2701'>0.77145E+02</wgt>
<wgt id='2702'>0.77888E+02</wgt>
<wgt id='2703'>0.79093E+02</wgt>
<wgt id='2704'>0.79771E+02</wgt>
<wgt id='2705'>0.80988E+02</wgt>
<wgt id='2800'>0.79819E+02</wgt>
<wgt id='4000'>0.80204E+02</wgt>
<wgt id='4001'>0.80522E+02</wgt>
<wgt id='4002'>0.80121E+02</wgt>
<wgt id='4003'>0.80404E+02</wgt>
<wgt id='4004'>0.79936E+02</wgt>
<wgt id='4005'>0.79942E+02</wgt>
<wgt id='4006'>0.80475E+02</wgt>
<wgt id='4007'>0.81052E+02</wgt>
<wgt id='4008'>0.79377E+02</wgt>
<wgt id='4009'>0.80460E+02</wgt>
<wgt id='4010'>0.79931E+02</wgt>
<wgt id='4011'>0.80534E+02</wgt>
<wgt id='4012'>0.79857E+02</wgt>
<wgt id='4013'>0.80602E+02</wgt>
<wgt id='4014'>0.79886E+02</wgt>
<wgt id='4015'>0.79834E+02</wgt>
<wgt id='4016'>0.80647E+02</wgt>
<wgt id='4017'>0.80144E+02</wgt>
<wgt id='4018'>0.80299E+02</wgt>
<wgt id='4019'>0.80632E+02</wgt>
<wgt id='4020'>0.79564E+02</wgt>
<wgt id='4021'>0.80302E+02</wgt>
<wgt id='4022'>0.80012E+02</wgt>
<wgt id='4023'>0.80166E+02</wgt>
<wgt id='4024'>0.80386E+02</wgt>
<wgt id='4025'>0.80393E+02</wgt>
<wgt id='4026'>0.79778E+02</wgt>
<wgt id='4027'>0.80269E+02</wgt>
<wgt id='4028'>0.80167E+02</wgt>
<wgt id='4029'>0.79953E+02</wgt>
<wgt id='4030'>0.79863E+02</wgt>
<wgt id='4031'>0.79993E+02</wgt>
<wgt id='4032'>0.80486E+02</wgt>
<wgt id='4033'>0.80352E+02</wgt>
<wgt id='4034'>0.79838E+02</wgt>
<wgt id='4035'>0.81102E+02</wgt>
<wgt id='4036'>0.79495E+02</wgt>
<wgt id='4037'>0.81670E+02</wgt>
<wgt id='4038'>0.79062E+02</wgt>
<wgt id='4039'>0.81624E+02</wgt>
<wgt id='4040'>0.78766E+02</wgt>
<wgt id='4041'>0.80290E+02</wgt>
<wgt id='4042'>0.80021E+02</wgt>
<wgt id='4043'>0.79518E+02</wgt>
<wgt id='4044'>0.80132E+02</wgt>
<wgt id='4045'>0.81448E+02</wgt>
<wgt id='4046'>0.79599E+02</wgt>
<wgt id='4047'>0.79546E+02</wgt>
<wgt id='4048'>0.80502E+02</wgt>
<wgt id='4049'>0.80159E+02</wgt>
<wgt id='4050'>0.80212E+02</wgt>
<wgt id='4051'>0.81164E+02</wgt>
<wgt id='4052'>0.79367E+02</wgt>
<wgt id='4053'>0.80630E+02</wgt>
<wgt id='4054'>0.79348E+02</wgt>
<wgt id='4055'>0.80593E+02</wgt>
<wgt id='4056'>0.79781E+02</wgt>
<wgt id='4057'>0.79452E+02</wgt>
<wgt id='4058'>0.80712E+02</wgt>
<wgt id='4100'>0.80824E+02</wgt>
<wgt id='4101'>0.80520E+02</wgt>
<wgt id='4102'>0.79872E+02</wgt>
<wgt id='4103'>0.79526E+02</wgt>
<wgt id='4200'>0.77537E+02</wgt>
<wgt id='4201'>0.77599E+02</wgt>
<wgt id='4202'>0.77680E+02</wgt>
<wgt id='4203'>0.76976E+02</wgt>
<wgt id='4204'>0.77952E+02</wgt>
<wgt id='4205'>0.77480E+02</wgt>
<wgt id='4206'>0.77733E+02</wgt>
<wgt id='4207'>0.77573E+02</wgt>
<wgt id='4208'>0.77545E+02</wgt>
<wgt id='4209'>0.77595E+02</wgt>
<wgt id='4210'>0.77586E+02</wgt>
<wgt id='4211'>0.78451E+02</wgt>
<wgt id='4212'>0.76813E+02</wgt>
<wgt id='4213'>0.77724E+02</wgt>
<wgt id='4214'>0.77235E+02</wgt>
<wgt id='4215'>0.77577E+02</wgt>
<wgt id='4216'>0.77329E+02</wgt>
<wgt id='4217'>0.77243E+02</wgt>
<wgt id='4218'>0.77738E+02</wgt>
<wgt id='4219'>0.76620E+02</wgt>
<wgt id='4220'>0.78388E+02</wgt>
<wgt id='4221'>0.76944E+02</wgt>
<wgt id='4222'>0.78239E+02</wgt>
<wgt id='4223'>0.77736E+02</wgt>
<wgt id='4224'>0.76971E+02</wgt>
<wgt id='4225'>0.76270E+02</wgt>
<wgt id='4226'>0.78776E+02</wgt>
<wgt id='4227'>0.78083E+02</wgt>
<wgt id='4228'>0.77071E+02</wgt>
<wgt id='4229'>0.76721E+02</wgt>
<wgt id='4230'>0.78120E+02</wgt>
<wgt id='4231'>0.77572E+02</wgt>
<wgt id='4232'>0.77419E+02</wgt>
<wgt id='4233'>0.77733E+02</wgt>
<wgt id='4234'>0.77081E+02</wgt>
<wgt id='4235'>0.78020E+02</wgt>
<wgt id='4236'>0.77098E+02</wgt>
<wgt id='4237'>0.77906E+02</wgt>
<wgt id='4238'>0.76876E+02</wgt>
<wgt id='4239'>0.77849E+02</wgt>
<wgt id='4240'>0.76530E+02</wgt>
<wgt id='4241'>0.77270E+02</wgt>
<wgt id='4242'>0.77812E+02</wgt>
<wgt id='4243'>0.77555E+02</wgt>
<wgt id='4244'>0.77692E+02</wgt>
<wgt id='4245'>0.76894E+02</wgt>
<wgt id='4246'>0.78073E+02</wgt>
<wgt id='4247'>0.77184E+02</wgt>
<wgt id='4248'>0.77698E+02</wgt>
<wgt id='4249'>0.78653E+02</wgt>
<wgt id='4250'>0.76217E+02</wgt>
<wgt id='4251'>0.77044E+02</wgt>
<wgt id='4252'>0.77764E+02</wgt>
<wgt id='4253'>0.77263E+02</wgt>
<wgt id='4254'>0.77634E+02</wgt>
<wgt id='4255'>0.78064E+02</wgt>
<wgt id='4256'>0.77161E+02</wgt>
<wgt id='4257'>0.76116E+02</wgt>
<wgt id='4258'>0.77949E+02</wgt>
<wgt id='4300'>0.79400E+02</wgt>
<wgt id='4301'>0.78951E+02</wgt>
<wgt id='5000'>0.80228E+02</wgt>
<wgt id='5001'>0.80267E+02</wgt>
<wgt id='5002'>0.80179E+02</wgt>
<wgt id='5003'>0.80247E+02</wgt>
<wgt id='5004'>0.80211E+02</wgt>
<wgt id='5005'>0.80233E+02</wgt>
<wgt id='5006'>0.80220E+02</wgt>
<wgt id='5007'>0.80297E+02</wgt>
<wgt id='5008'>0.80172E+02</wgt>
<wgt id='5009'>0.80333E+02</wgt>
<wgt id='5010'>0.80120E+02</wgt>
<wgt id='5011'>0.80424E+02</wgt>
<wgt id='5012'>0.80040E+02</wgt>
<wgt id='5013'>0.80342E+02</wgt>
<wgt id='5014'>0.80148E+02</wgt>
<wgt id='5015'>0.79828E+02</wgt>
<wgt id='5016'>0.79828E+02</wgt>
<wgt id='5017'>0.80654E+02</wgt>
<wgt id='5018'>0.79941E+02</wgt>
<wgt id='5019'>0.80528E+02</wgt>
<wgt id='5020'>0.79818E+02</wgt>
<wgt id='5021'>0.80327E+02</wgt>
<wgt id='5022'>0.80073E+02</wgt>
<wgt id='5023'>0.80143E+02</wgt>
<wgt id='5024'>0.80431E+02</wgt>
<wgt id='5025'>0.79945E+02</wgt>
<wgt id='5026'>0.80546E+02</wgt>
<wgt id='5027'>0.80268E+02</wgt>
<wgt id='5028'>0.80120E+02</wgt>
<wgt id='5029'>0.80960E+02</wgt>
<wgt id='5030'>0.79814E+02</wgt>
<wgt id='5031'>0.79850E+02</wgt>
<wgt id='5032'>0.81377E+02</wgt>
<wgt id='5033'>0.80216E+02</wgt>
<wgt id='5034'>0.80242E+02</wgt>
<wgt id='5035'>0.80235E+02</wgt>
<wgt id='5036'>0.80221E+02</wgt>
<wgt id='5037'>0.80084E+02</wgt>
<wgt id='5038'>0.80310E+02</wgt>
<wgt id='5039'>0.80426E+02</wgt>
<wgt id='5040'>0.79742E+02</wgt>
<wgt id='5041'>0.80346E+02</wgt>
<wgt id='5042'>0.80112E+02</wgt>
<wgt id='5043'>0.80356E+02</wgt>
<wgt id='5044'>0.80157E+02</wgt>
<wgt id='5045'>0.80159E+02</wgt>
<wgt id='5046'>0.80333E+02</wgt>
<wgt id='5047'>0.80278E+02</wgt>
<wgt id='5048'>0.80010E+02</wgt>
<wgt id='5049'>0.80181E+02</wgt>
<wgt id='5050'>0.80338E+02</wgt>
<wgt id='5051'>0.80387E+02</wgt>
<wgt id='5052'>0.80098E+02</wgt>
<wgt id='5053'>0.80158E+02</wgt>
<wgt id='5054'>0.80401E+02</wgt>
<wgt id='5055'>0.80288E+02</wgt>
<wgt id='5056'>0.80251E+02</wgt>
<wgt id='5057'>0.79958E+02</wgt>
<wgt id='5058'>0.80417E+02</wgt>
<wgt id='5059'>0.80180E+02</wgt>
<wgt id='5060'>0.80264E+02</wgt>
<wgt id='5061'>0.80461E+02</wgt>
<wgt id='5062'>0.80315E+02</wgt>
<wgt id='5063'>0.80513E+02</wgt>
<wgt id='5064'>0.80210E+02</wgt>
<wgt id='5100'>0.80228E+02</wgt>
<wgt id='5101'>0.80238E+02</wgt>
<wgt id='6000'>0.79934E+02</wgt>
<wgt id='6001'>0.79894E+02</wgt>
<wgt id='6002'>0.79868E+02</wgt>
<wgt id='6003'>0.79801E+02</wgt>
<wgt id='6004'>0.79976E+02</wgt>
<wgt id='6005'>0.79665E+02</wgt>
<wgt id='6006'>0.80096E+02</wgt>
<wgt id='6007'>0.79704E+02</wgt>
<wgt id='6008'>0.79593E+02</wgt>
<wgt id='6009'>0.80007E+02</wgt>
<wgt id='6010'>0.78976E+02</wgt>
<wgt id='6011'>0.79898E+02</wgt>
<wgt id='6012'>0.80143E+02</wgt>
<wgt id='6013'>0.79643E+02</wgt>
<wgt id='6014'>0.79768E+02</wgt>
<wgt id='6015'>0.79414E+02</wgt>
<wgt id='6016'>0.80105E+02</wgt>
<wgt id='6017'>0.79783E+02</wgt>
<wgt id='6018'>0.79652E+02</wgt>
<wgt id='6019'>0.79946E+02</wgt>
<wgt id='6020'>0.80091E+02</wgt>
<wgt id='6021'>0.79890E+02</wgt>
<wgt id='6022'>0.80016E+02</wgt>
<wgt id='6023'>0.79926E+02</wgt>
<wgt id='6024'>0.80004E+02</wgt>
<wgt id='6025'>0.80218E+02</wgt>
<wgt id='6026'>0.79885E+02</wgt>
<wgt id='6027'>0.79939E+02</wgt>
<wgt id='6028'>0.79736E+02</wgt>
<wgt id='6029'>0.79824E+02</wgt>
<wgt id='6030'>0.79897E+02</wgt>
<wgt id='6031'>0.79744E+02</wgt>
<wgt id='6032'>0.79950E+02</wgt>
<wgt id='6033'>0.79855E+02</wgt>
<wgt id='6034'>0.80186E+02</wgt>
<wgt id='6035'>0.79980E+02</wgt>
<wgt id='6036'>0.80433E+02</wgt>
<wgt id='6037'>0.79936E+02</wgt>
<wgt id='6038'>0.79944E+02</wgt>
<wgt id='6039'>0.80085E+02</wgt>
<wgt id='6040'>0.79922E+02</wgt>
<wgt id='6041'>0.78664E+02</wgt>
<wgt id='6042'>0.80723E+02</wgt>
<wgt id='7000'>0.79678E+02</wgt>
<wgt id='7001'>0.79139E+02</wgt>
<wgt id='7002'>0.79307E+02</wgt>
<wgt id='7003'>0.79212E+02</wgt>
<wgt id='7004'>0.79235E+02</wgt>
<wgt id='7005'>0.79326E+02</wgt>
<wgt id='7006'>0.79121E+02</wgt>
<wgt id='7007'>0.79708E+02</wgt>
<wgt id='7008'>0.78752E+02</wgt>
<wgt id='7009'>0.78902E+02</wgt>
<wgt id='7010'>0.79556E+02</wgt>
<wgt id='7011'>0.79491E+02</wgt>
<wgt id='7012'>0.78960E+02</wgt>
<wgt id='7013'>0.79101E+02</wgt>
<wgt id='7014'>0.79339E+02</wgt>
<wgt id='7015'>0.79192E+02</wgt>
<wgt id='7016'>0.79053E+02</wgt>
<wgt id='7017'>0.79218E+02</wgt>
<wgt id='7018'>0.79232E+02</wgt>
<wgt id='7019'>0.79170E+02</wgt>
<wgt id='7020'>0.79286E+02</wgt>
<wgt id='7021'>0.79491E+02</wgt>
<wgt id='7022'>0.78941E+02</wgt>
<wgt id='7023'>0.78761E+02</wgt>
<wgt id='7024'>0.79695E+02</wgt>
<wgt id='7025'>0.78192E+02</wgt>
<wgt id='7026'>0.80177E+02</wgt>
<wgt id='7027'>0.78803E+02</wgt>
<wgt id='7028'>0.79702E+02</wgt>
<wgt id='8000'>0.80316E+02</wgt>
<wgt id='8001'>0.80306E+02</wgt>
<wgt id='8002'>0.80341E+02</wgt>
<wgt id='8003'>0.80318E+02</wgt>
<wgt id='8004'>0.80314E+02</wgt>
<wgt id='8005'>0.80162E+02</wgt>
<wgt id='8006'>0.80393E+02</wgt>
<wgt id='8007'>0.80460E+02</wgt>
<wgt id='8008'>0.80494E+02</wgt>
<wgt id='8009'>0.80653E+02</wgt>
<wgt id='8010'>0.80232E+02</wgt>
<wgt id='8011'>0.80330E+02</wgt>
<wgt id='8012'>0.80031E+02</wgt>
<wgt id='8013'>0.80164E+02</wgt>
<wgt id='8014'>0.80496E+02</wgt>
<wgt id='8015'>0.80267E+02</wgt>
<wgt id='8016'>0.80397E+02</wgt>
<wgt id='8017'>0.80373E+02</wgt>
<wgt id='8018'>0.80519E+02</wgt>
<wgt id='8019'>0.80347E+02</wgt>
<wgt id='8020'>0.80306E+02</wgt>
<wgt id='8021'>0.80239E+02</wgt>
<wgt id='8022'>0.80295E+02</wgt>
<wgt id='8023'>0.80211E+02</wgt>
<wgt id='8024'>0.80052E+02</wgt>
<wgt id='8025'>0.80242E+02</wgt>
<wgt id='8026'>0.80411E+02</wgt>
<wgt id='8027'>0.80370E+02</wgt>
<wgt id='8028'>0.80368E+02</wgt>
<wgt id='8029'>0.80439E+02</wgt>
<wgt id='3000'>0.81104E+02</wgt>
<wgt id='3001'>0.80669E+02</wgt>
<wgt id='3002'>0.79754E+02</wgt>
<wgt id='3003'>0.79544E+02</wgt>
<wgt id='3004'>0.82054E+02</wgt>
<wgt id='3005'>0.81791E+02</wgt>
<wgt id='3006'>0.82856E+02</wgt>
<wgt id='3007'>0.80422E+02</wgt>
<wgt id='3008'>0.80502E+02</wgt>
<wgt id='3009'>0.81054E+02</wgt>
<wgt id='3010'>0.82947E+02</wgt>
<wgt id='3011'>0.81237E+02</wgt>
<wgt id='3012'>0.81349E+02</wgt>
<wgt id='3013'>0.80230E+02</wgt>
<wgt id='3014'>0.80825E+02</wgt>
<wgt id='3015'>0.80688E+02</wgt>
<wgt id='3016'>0.81693E+02</wgt>
<wgt id='3017'>0.82743E+02</wgt>
<wgt id='3018'>0.80721E+02</wgt>
<wgt id='3019'>0.79862E+02</wgt>
<wgt id='3020'>0.80783E+02</wgt>
<wgt id='3021'>0.79326E+02</wgt>
<wgt id='3022'>0.79458E+02</wgt>
<wgt id='3023'>0.79859E+02</wgt>
<wgt id='3024'>0.80957E+02</wgt>
<wgt id='3025'>0.80178E+02</wgt>
<wgt id='3026'>0.80453E+02</wgt>
<wgt id='3027'>0.80132E+02</wgt>
<wgt id='3028'>0.80426E+02</wgt>
<wgt id='3029'>0.82253E+02</wgt>
<wgt id='3030'>0.81909E+02</wgt>
<wgt id='3031'>0.80892E+02</wgt>
<wgt id='3032'>0.81580E+02</wgt>
<wgt id='3033'>0.80476E+02</wgt>
<wgt id='3034'>0.82179E+02</wgt>
<wgt id='3035'>0.80936E+02</wgt>
<wgt id='3036'>0.80795E+02</wgt>
<wgt id='3037'>0.79979E+02</wgt>
<wgt id='3038'>0.81133E+02</wgt>
<wgt id='3039'>0.80571E+02</wgt>
<wgt id='3040'>0.81466E+02</wgt>
<wgt id='3041'>0.81858E+02</wgt>
<wgt id='3042'>0.81453E+02</wgt>
<wgt id='3043'>0.81712E+02</wgt>
<wgt id='3044'>0.81656E+02</wgt>
<wgt id='3045'>0.81639E+02</wgt>
<wgt id='3046'>0.81744E+02</wgt>
<wgt id='3047'>0.79995E+02</wgt>
<wgt id='3048'>0.80860E+02</wgt>
<wgt id='3049'>0.80140E+02</wgt>
<wgt id='3050'>0.81206E+02</wgt>
<wgt id='3051'>0.80675E+02</wgt>
<wgt id='3052'>0.79994E+02</wgt>
<wgt id='3053'>0.81120E+02</wgt>
<wgt id='3054'>0.79784E+02</wgt>
<wgt id='3055'>0.80843E+02</wgt>
<wgt id='3056'>0.81130E+02</wgt>
<wgt id='3057'>0.80160E+02</wgt>
<wgt id='3058'>0.80914E+02</wgt>
<wgt id='3059'>0.82308E+02</wgt>
<wgt id='3060'>0.80847E+02</wgt>
<wgt id='3061'>0.80581E+02</wgt>
<wgt id='3062'>0.80838E+02</wgt>
<wgt id='3063'>0.80418E+02</wgt>
<wgt id='3064'>0.81661E+02</wgt>
<wgt id='3065'>0.80368E+02</wgt>
<wgt id='3066'>0.82085E+02</wgt>
<wgt id='3067'>0.79805E+02</wgt>
<wgt id='3068'>0.81296E+02</wgt>
<wgt id='3069'>0.81220E+02</wgt>
<wgt id='3070'>0.80638E+02</wgt>
<wgt id='3071'>0.81514E+02</wgt>
<wgt id='3072'>0.79947E+02</wgt>
<wgt id='3073'>0.81966E+02</wgt>
<wgt id='3074'>0.81207E+02</wgt>
<wgt id='3075'>0.82232E+02</wgt>
<wgt id='3076'>0.82614E+02</wgt>
<wgt id='3077'>0.81327E+02</wgt>
<wgt id='3078'>0.79944E+02</wgt>
<wgt id='3079'>0.81134E+02</wgt>
<wgt id='3080'>0.82200E+02</wgt>
<wgt id='3081'>0.80710E+02</wgt>
<wgt id='3082'>0.81693E+02</wgt>
<wgt id='3083'>0.81617E+02</wgt>
<wgt id='3084'>0.81082E+02</wgt>
<wgt id='3085'>0.79592E+02</wgt>
<wgt id='3086'>0.80982E+02</wgt>
<wgt id='3087'>0.81161E+02</wgt>
<wgt id='3088'>0.82588E+02</wgt>
<wgt id='3089'>0.84533E+02</wgt>
<wgt id='3090'>0.82033E+02</wgt>
<wgt id='3091'>0.81118E+02</wgt>
<wgt id='3092'>0.82416E+02</wgt>
<wgt id='3093'>0.81830E+02</wgt>
<wgt id='3094'>0.81590E+02</wgt>
<wgt id='3095'>0.81333E+02</wgt>
<wgt id='3096'>0.80322E+02</wgt>
<wgt id='3097'>0.82055E+02</wgt>
<wgt id='3098'>0.82213E+02</wgt>
<wgt id='3099'>0.80465E+02</wgt>
<wgt id='3100'>0.80964E+02</wgt>
<wgt id='3200'>0.78562E+02</wgt>
<wgt id='3201'>0.78972E+02</wgt>
<wgt id='3202'>0.77288E+02</wgt>
<wgt id='3203'>0.78855E+02</wgt>
<wgt id='3204'>0.77742E+02</wgt>
<wgt id='3205'>0.78877E+02</wgt>
<wgt id='3206'>0.79418E+02</wgt>
<wgt id='3207'>0.79526E+02</wgt>
<wgt id='3208'>0.79131E+02</wgt>
<wgt id='3209'>0.78332E+02</wgt>
<wgt id='3210'>0.78571E+02</wgt>
<wgt id='3211'>0.79205E+02</wgt>
<wgt id='3212'>0.78216E+02</wgt>
<wgt id='3213'>0.78445E+02</wgt>
<wgt id='3214'>0.78038E+02</wgt>
<wgt id='3215'>0.78673E+02</wgt>
<wgt id='3216'>0.79332E+02</wgt>
<wgt id='3217'>0.78982E+02</wgt>
<wgt id='3218'>0.79057E+02</wgt>
<wgt id='3219'>0.78576E+02</wgt>
<wgt id='3220'>0.77929E+02</wgt>
<wgt id='3221'>0.79013E+02</wgt>
<wgt id='3222'>0.79541E+02</wgt>
<wgt id='3223'>0.79015E+02</wgt>
<wgt id='3224'>0.78345E+02</wgt>
<wgt id='3225'>0.79440E+02</wgt>
<wgt id='3226'>0.78321E+02</wgt>
<wgt id='3227'>0.77797E+02</wgt>
<wgt id='3228'>0.77738E+02</wgt>
<wgt id='3229'>0.79221E+02</wgt>
<wgt id='3230'>0.79017E+02</wgt>
<wgt id='3231'>0.78682E+02</wgt>
<wgt id='3232'>0.78862E+02</wgt>
<wgt id='3233'>0.78969E+02</wgt>
<wgt id='3234'>0.78096E+02</wgt>
<wgt id='3235'>0.78395E+02</wgt>
<wgt id='3236'>0.77918E+02</wgt>
<wgt id='3237'>0.78595E+02</wgt>
<wgt id='3238'>0.77862E+02</wgt>
<wgt id='3239'>0.78337E+02</wgt>
<wgt id='3240'>0.77953E+02</wgt>
<wgt id='3241'>0.79384E+02</wgt>
<wgt id='3242'>0.78028E+02</wgt>
<wgt id='3243'>0.78035E+02</wgt>
<wgt id='3244'>0.78319E+02</wgt>
<wgt id='3245'>0.78901E+02</wgt>
<wgt id='3246'>0.77326E+02</wgt>
<wgt id='3247'>0.78483E+02</wgt>
<wgt id='3248'>0.78125E+02</wgt>
<wgt id='3249'>0.77800E+02</wgt>
<wgt id='3250'>0.78999E+02</wgt>
<wgt id='3251'>0.78253E+02</wgt>
<wgt id='3252'>0.78871E+02</wgt>
<wgt id='3253'>0.78384E+02</wgt>
<wgt id='3254'>0.78429E+02</wgt>
<wgt id='3255'>0.78228E+02</wgt>
<wgt id='3256'>0.78572E+02</wgt>
<wgt id='3257'>0.78528E+02</wgt>
<wgt id='3258'>0.78523E+02</wgt>
<wgt id='3259'>0.78137E+02</wgt>
<wgt id='3260'>0.78515E+02</wgt>
<wgt id='3261'>0.78600E+02</wgt>
<wgt id='3262'>0.78618E+02</wgt>
<wgt id='3263'>0.79446E+02</wgt>
<wgt id='3264'>0.78586E+02</wgt>
<wgt id='3265'>0.78817E+02</wgt>
<wgt id='3266'>0.78595E+02</wgt>
<wgt id='3267'>0.78382E+02</wgt>
<wgt id='3268'>0.78703E+02</wgt>
<wgt id='3269'>0.78690E+02</wgt>
<wgt id='3270'>0.79286E+02</wgt>
<wgt id='3271'>0.78865E+02</wgt>
<wgt id='3272'>0.78923E+02</wgt>
<wgt id='3273'>0.78431E+02</wgt>
<wgt id='3274'>0.78196E+02</wgt>
<wgt id='3275'>0.78936E+02</wgt>
<wgt id='3276'>0.78051E+02</wgt>
<wgt id='3277'>0.78431E+02</wgt>
<wgt id='3278'>0.78643E+02</wgt>
<wgt id='3279'>0.79048E+02</wgt>
<wgt id='3280'>0.78325E+02</wgt>
<wgt id='3281'>0.78779E+02</wgt>
<wgt id='3282'>0.78755E+02</wgt>
<wgt id='3283'>0.78707E+02</wgt>
<wgt id='3284'>0.78574E+02</wgt>
<wgt id='3285'>0.78129E+02</wgt>
<wgt id='3286'>0.77926E+02</wgt>
<wgt id='3287'>0.78738E+02</wgt>
<wgt id='3288'>0.78745E+02</wgt>
<wgt id='3289'>0.79687E+02</wgt>
<wgt id='3290'>0.78750E+02</wgt>
<wgt id='3291'>0.77310E+02</wgt>
<wgt id='3292'>0.78317E+02</wgt>
<wgt id='3293'>0.78453E+02</wgt>
<wgt id='3294'>0.77700E+02</wgt>
<wgt id='3295'>0.78300E+02</wgt>
<wgt id='3296'>0.79519E+02</wgt>
<wgt id='3297'>0.78433E+02</wgt>
<wgt id='3298'>0.78094E+02</wgt>
<wgt id='3299'>0.78498E+02</wgt>
<wgt id='3300'>0.79056E+02</wgt>
<wgt id='3301'>0.77145E+02</wgt>
<wgt id='3302'>0.79771E+02</wgt>
<wgt id='3400'>0.78215E+02</wgt>
<wgt id='3401'>0.78212E+02</wgt>
<wgt id='3402'>0.77181E+02</wgt>
<wgt id='3403'>0.79019E+02</wgt>
<wgt id='3404'>0.79531E+02</wgt>
<wgt id='3405'>0.78743E+02</wgt>
<wgt id='3406'>0.78950E+02</wgt>
<wgt id='3407'>0.77996E+02</wgt>
<wgt id='3408'>0.79401E+02</wgt>
<wgt id='3409'>0.79163E+02</wgt>
<wgt id='3410'>0.78525E+02</wgt>
<wgt id='3411'>0.79202E+02</wgt>
<wgt id='3412'>0.79004E+02</wgt>
<wgt id='3413'>0.78141E+02</wgt>
<wgt id='3414'>0.77649E+02</wgt>
<wgt id='3415'>0.77970E+02</wgt>
<wgt id='3416'>0.77623E+02</wgt>
<wgt id='3417'>0.78479E+02</wgt>
<wgt id='3418'>0.77496E+02</wgt>
<wgt id='3419'>0.77617E+02</wgt>
<wgt id='3420'>0.78082E+02</wgt>
<wgt id='3421'>0.78085E+02</wgt>
<wgt id='3422'>0.78521E+02</wgt>
<wgt id='3423'>0.78774E+02</wgt>
<wgt id='3424'>0.78779E+02</wgt>
<wgt id='3425'>0.77983E+02</wgt>
<wgt id='3426'>0.78063E+02</wgt>
<wgt id='3427'>0.77874E+02</wgt>
<wgt id='3428'>0.79033E+02</wgt>
<wgt id='3429'>0.77509E+02</wgt>
<wgt id='3430'>0.78446E+02</wgt>
<wgt id='3431'>0.78367E+02</wgt>
<wgt id='3432'>0.78635E+02</wgt>
<wgt id='3433'>0.77331E+02</wgt>
<wgt id='3434'>0.78595E+02</wgt>
<wgt id='3435'>0.78662E+02</wgt>
<wgt id='3436'>0.78042E+02</wgt>
<wgt id='3437'>0.78596E+02</wgt>
<wgt id='3438'>0.77483E+02</wgt>
<wgt id='3439'>0.77933E+02</wgt>
<wgt id='3440'>0.78335E+02</wgt>
<wgt id='3441'>0.78064E+02</wgt>
<wgt id='3442'>0.76906E+02</wgt>
<wgt id='3443'>0.78330E+02</wgt>
<wgt id='3444'>0.77783E+02</wgt>
<wgt id='3445'>0.77923E+02</wgt>
<wgt id='3446'>0.78440E+02</wgt>
<wgt id='3447'>0.78829E+02</wgt>
<wgt id='3448'>0.79286E+02</wgt>
<wgt id='3449'>0.78889E+02</wgt>
<wgt id='3450'>0.78118E+02</wgt>
<wgt id='3451'>0.79094E+02</wgt>
<wgt id='3452'>0.78009E+02</wgt>
<wgt id='3453'>0.77259E+02</wgt>
<wgt id='3454'>0.77791E+02</wgt>
<wgt id='3455'>0.78930E+02</wgt>
<wgt id='3456'>0.78404E+02</wgt>
<wgt id='3457'>0.79045E+02</wgt>
<wgt id='3458'>0.78149E+02</wgt>
<wgt id='3459'>0.78115E+02</wgt>
<wgt id='3460'>0.78023E+02</wgt>
<wgt id='3461'>0.77357E+02</wgt>
<wgt id='3462'>0.78120E+02</wgt>
<wgt id='3463'>0.77266E+02</wgt>
<wgt id='3464'>0.78684E+02</wgt>
<wgt id='3465'>0.78545E+02</wgt>
<wgt id='3466'>0.78545E+02</wgt>
<wgt id='3467'>0.77909E+02</wgt>
<wgt id='3468'>0.77551E+02</wgt>
<wgt id='3469'>0.77950E+02</wgt>
<wgt id='3470'>0.77972E+02</wgt>
<wgt id='3471'>0.78005E+02</wgt>
<wgt id='3472'>0.77369E+02</wgt>
<wgt id='3473'>0.79012E+02</wgt>
<wgt id='3474'>0.77901E+02</wgt>
<wgt id='3475'>0.78440E+02</wgt>
<wgt id='3476'>0.78204E+02</wgt>
<wgt id='3477'>0.77598E+02</wgt>
<wgt id='3478'>0.79030E+02</wgt>
<wgt id='3479'>0.78599E+02</wgt>
<wgt id='3480'>0.78175E+02</wgt>
<wgt id='3481'>0.78633E+02</wgt>
<wgt id='3482'>0.78296E+02</wgt>
<wgt id='3483'>0.77519E+02</wgt>
<wgt id='3484'>0.77774E+02</wgt>
<wgt id='3485'>0.77865E+02</wgt>
<wgt id='3486'>0.76590E+02</wgt>
<wgt id='3487'>0.78296E+02</wgt>
<wgt id='3488'>0.78635E+02</wgt>
<wgt id='3489'>0.77337E+02</wgt>
<wgt id='3490'>0.78799E+02</wgt>
<wgt id='3491'>0.78825E+02</wgt>
<wgt id='3492'>0.78217E+02</wgt>
<wgt id='3493'>0.78375E+02</wgt>
<wgt id='3494'>0.76234E+02</wgt>
<wgt id='3495'>0.78388E+02</wgt>
<wgt id='3496'>0.77343E+02</wgt>
<wgt id='3497'>0.77795E+02</wgt>
<wgt id='3498'>0.78880E+02</wgt>
<wgt id='3499'>0.77956E+02</wgt>
<wgt id='3500'>0.79101E+02</wgt>
</rwgt>
</event>
<event>
     13 322200  8.11039E+01  8.04297E+00 -1.00000E+00  2.02815E-01
      21    -1     0     0   512   513  0.000000000E+00  0.000000000E+00  8.108595357E+01  8.108595357E+01  0.000000000E+00  0.00000E+00  9.000E+00
      -1    -1     0     0     0   512  0.000000000E+00  0.000000000E+00 -7.975182835E+02  7.975182835E+02  0.000000000E+00  0.00000E+00  9.000E+00
       6     2     1     2   502     0 -7.218610874E+01  1.178676037E+02 -2.373869596E+02  3.237345428E+02  1.713122276E+02  0.00000E+00  9.000E+00
      -6     2     1     2     0   513  6.414913482E+01 -1.181777023E+02 -4.932645178E+02  5.385320885E+02  1.691917403E+02  0.00000E+00  9.000E+00
      -1     1     1     2     0   502  8.036973924E+00  3.100986197E-01  1.421914742E+01  1.633760584E+01  2.100000000E-01  0.00000E+00  9.000E+00
      24     2     3     3     0     0 -5.105967609E+01  1.485010006E+02 -2.187510193E+02  2.818104085E+02  8.309909856E+01  0.00000E+00  9.000E+00
       5     1     3     3   502     0 -2.112643266E+01 -3.063339692E+01 -1.863594022E+01  4.192413424E+01  5.060000000E+00  0.00000E+00 -1.000E+00
     -24     2     4     4     0     0  4.686154186E+01 -5.179174242E+01 -4.373249776E+02  4.498709792E+02  7.907194953E+01  0.00000E+00  9.000E+00
      -5     1     4     4     0   513  1.728759296E+01 -6.638595989E+01 -5.593954020E+01  8.866110928E+01  5.060000000E+00  0.00000E+00  1.000E+00
     -11     1     6     6     0     0  4.390654024E+00  6.850442441E+00  6.217333639E+00  1.024019737E+01  5.100000000E-04  0.00000E+00  1.000E+00
      12     1     6     6     0     0 -5.545033011E+01  1.416505582E+02 -2.249683530E+02  2.715702111E+02  0.000000000E+00  0.00000E+00 -1.000E+00
      13     1     8     8     0     0 -1.707399017E+01 -1.136258845E+01 -1.934307131E+02  1.945149904E+02  1.057000000E-01  0.00000E+00 -1.000E+00
     -14     1     8     8     0     0  6.393553202E+01 -4.042915398E+01 -2.438942645E+02  2.553559888E+02  0.000000000E+00  0.00000E+00  1.000E+00
#rwgt            1           7   9.4675318486640858               10       36014           0
<rwgt>
<wgt id='1001'>0.81104E+02</wgt>
<wgt id='1002'>0.87026E+02</wgt>
<wgt id='1003'>0.75993E+02</wgt>
<wgt id='1004'>0.73434E+02</wgt>
<wgt id='1005'>0.77857E+02</wgt>
<wgt id='1006'>0.69596E+02</wgt>
<wgt id='1007'>0.89106E+02</wgt>
<wgt id='1008'>0.97238E+02</wgt>
<wgt id='1009'>0.82126E+02</wgt>
<wgt id='2000'>0.81104E+02</wgt>
<wgt id='2001'>0.81080E+02</wgt>
<wgt id='2002'>0.80999E+02</wgt>
<wgt id='2003'>0.81156E+02</wgt>
<wgt id='2004'>0.81648E+02</wgt>
<wgt id='2005'>0.80589E+02</wgt>
<wgt id='2006'>0.80920E+02</wgt>
<wgt id='2007'>0.80920E+02</wgt>
<wgt id='2008'>0.80305E+02</wgt>
<wgt id='2009'>0.81944E+02</wgt>
<wgt id='2010'>0.81084E+02</wgt>
<wgt id='2011'>0.81350E+02</wgt>
<wgt id='2012'>0.81256E+02</wgt>
<wgt id='2013'>0.81584E+02</wgt>
<wgt id='2014'>0.80544E+02</wgt>
<wgt id='2015'>0.82471E+02</wgt>
<wgt id='2016'>0.81305E+02</wgt>
<wgt id='2017'>0.81022E+02</wgt>
<wgt id='2018'>0.80493E+02</wgt>
<wgt id='2019'>0.80970E+02</wgt>
<wgt id='2020'>0.81568E+02</wgt>
<wgt id='2021'>0.80780E+02</wgt>
<wgt id='2022'>0.81659E+02</wgt>
<wgt id='2023'>0.81076E+02</wgt>
<wgt id='2024'>0.80644E+02</wgt>
<wgt id='2025'>0.80565E+02</wgt>
<wgt id='2026'>0.80826E+02</wgt>
<wgt id='2027'>0.82333E+02</wgt>
<wgt id='2028'>0.80977E+02</wgt>
<wgt id='2029'>0.81443E+02</wgt>
<wgt id='2030'>0.81588E+02</wgt>
<wgt id='2031'>0.81403E+02</wgt>
<wgt id='2032'>0.80259E+02</wgt>
<wgt id='2033'>0.81352E+02</wgt>
<wgt id='2034'>0.81331E+02</wgt>
<wgt id='2035'>0.81504E+02</wgt>
<wgt id='2036'>0.81134E+02</wgt>
<wgt id='2037'>0.80777E+02</wgt>
<wgt id='2038'>0.81341E+02</wgt>
<wgt id='2039'>0.81141E+02</wgt>
<wgt id='2040'>0.81017E+02</wgt>
<wgt id='2041'>0.81293E+02</wgt>
<wgt id='2042'>0.80999E+02</wgt>
<wgt id='2043'>0.80702E+02</wgt>
<wgt id='2044'>0.80821E+02</wgt>
<wgt id='2045'>0.81483E+02</wgt>
<wgt id='2046'>0.81514E+02</wgt>
<wgt id='2047'>0.81007E+02</wgt>
<wgt id='2048'>0.80969E+02</wgt>
<wgt id='2049'>0.81144E+02</wgt>
<wgt id='2050'>0.80970E+02</wgt>
<wgt id='2051'>0.81285E+02</wgt>
<wgt id='2052'>0.80907E+02</wgt>
<wgt id='2053'>0.81054E+02</wgt>
<wgt id='2054'>0.81414E+02</wgt>
<wgt id='2055'>0.81504E+02</wgt>
<wgt id='2056'>0.81111E+02</wgt>
<wgt id='2057'>0.80806E+02</wgt>
<wgt id='2058'>0.80946E+02</wgt>
<wgt id='2059'>0.81435E+02</wgt>
<wgt id='2060'>0.81144E+02</wgt>
<wgt id='2061'>0.81433E+02</wgt>
<wgt id='2062'>0.81172E+02</wgt>
<wgt id='2063'>0.80690E+02</wgt>
<wgt id='2064'>0.81548E+02</wgt>
<wgt id='2065'>0.81235E+02</wgt>
<wgt id='2066'>0.81723E+02</wgt>
<wgt id='2067'>0.81265E+02</wgt>
<wgt id='2068'>0.81007E+02</wgt>
<wgt id='2069'>0.80753E+02</wgt>
<wgt id='2070'>0.81177E+02</wgt>
<wgt id='2071'>0.81188E+02</wgt>
<wgt id='2072'>0.81231E+02</wgt>
<wgt id='2073'>0.81071E+02</wgt>
<wgt id='2074'>0.80754E+02</wgt>
<wgt id='2075'>0.80859E+02</wgt>
<wgt id='2076'>0.81184E+02</wgt>
<wgt id='2077'>0.81243E+02</wgt>
<wgt id='2078'>0.81426E+02</wgt>
<wgt id='2079'>0.81022E+02</wgt>
<wgt id='2080'>0.81115E+02</wgt>
<wgt id='2081'>0.81292E+02</wgt>
<wgt id='2082'>0.81382E+02</wgt>
<wgt id='2083'>0.80829E+02</wgt>
<wgt id='2084'>0.81315E+02</wgt>
<wgt id='2085'>0.80767E+02</wgt>
<wgt id='2086'>0.81230E+02</wgt>
<wgt id='2087'>0.81245E+02</wgt>
<wgt id='2088'>0.80893E+02</wgt>
<wgt id='2089'>0.81028E+02</wgt>
<wgt id='2090'>0.80778E+02</wgt>
<wgt id='2091'>0.81256E+02</wgt>
<wgt id='2092'>0.81044E+02</wgt>
<wgt id='2093'>0.81103E+02</wgt>
<wgt id='2094'>0.81120E+02</wgt>
<wgt id='2095'>0.81162E+02</wgt>
<wgt id='2096'>0.80964E+02</wgt>
<wgt id='2097'>0.81250E+02</wgt>
<wgt id='2098'>0.80989E+02</wgt>
<wgt id='2099'>0.81166E+02</wgt>
<wgt id='2100'>0.81104E+02</wgt>
<wgt id='2101'>0.78582E+02</wgt>
<wgt id='2102'>0.83684E+02</wgt>
<wgt id='2200'>0.81344E+02</wgt>
<wgt id='2201'>0.70278E+02</wgt>
<wgt id='2202'>0.72714E+02</wgt>
<wgt id='2203'>0.74239E+02</wgt>
<wgt id='2204'>0.76692E+02</wgt>
<wgt id='2205'>0.79682E+02</wgt>
<wgt id='2206'>0.82479E+02</wgt>
<wgt id='2207'>0.85814E+02</wgt>
<wgt id='2208'>0.88249E+02</wgt>
<wgt id='2300'>0.84904E+02</wgt>
<wgt id='2301'>0.84877E+02</wgt>
<wgt id='2302'>0.84936E+02</wgt>
<wgt id='2303'>0.84792E+02</wgt>
<wgt id='2304'>0.85393E+02</wgt>
<wgt id='2305'>0.84600E+02</wgt>
<wgt id='2306'>0.84737E+02</wgt>
<wgt id='2307'>0.84693E+02</wgt>
<wgt id='2308'>0.84540E+02</wgt>
<wgt id='2309'>0.85029E+02</wgt>
<wgt id='2310'>0.84172E+02</wgt>
<wgt id='2311'>0.84897E+02</wgt>
<wgt id='2312'>0.84967E+02</wgt>
<wgt id='2313'>0.85124E+02</wgt>
<wgt id='2314'>0.85389E+02</wgt>
<wgt id='2315'>0.84244E+02</wgt>
<wgt id='2316'>0.85233E+02</wgt>
<wgt id='2317'>0.84554E+02</wgt>
<wgt id='2318'>0.84880E+02</wgt>
<wgt id='2319'>0.84747E+02</wgt>
<wgt id='2320'>0.84607E+02</wgt>
<wgt id='2321'>0.85712E+02</wgt>
<wgt id='2322'>0.84922E+02</wgt>
<wgt id='2323'>0.84986E+02</wgt>
<wgt id='2324'>0.85597E+02</wgt>
<wgt id='2325'>0.84440E+02</wgt>
<wgt id='2326'>0.84793E+02</wgt>
<wgt id='2327'>0.84949E+02</wgt>
<wgt id='2328'>0.84639E+02</wgt>
<wgt id='2329'>0.85662E+02</wgt>
<wgt id='2330'>0.86037E+02</wgt>
<wgt id='2331'>0.84705E+02</wgt>
<wgt id='2332'>0.84665E+02</wgt>
<wgt id='2333'>0.84707E+02</wgt>
<wgt id='2334'>0.84843E+02</wgt>
<wgt id='2335'>0.84262E+02</wgt>
<wgt id='2336'>0.84362E+02</wgt>
<wgt id='2337'>0.84678E+02</wgt>
<wgt id='2338'>0.84573E+02</wgt>
<wgt id='2339'>0.84786E+02</wgt>
<wgt id='2340'>0.85094E+02</wgt>
<wgt id='2341'>0.84376E+02</wgt>
<wgt id='2342'>0.84637E+02</wgt>
<wgt id='2343'>0.85533E+02</wgt>
<wgt id='2344'>0.84730E+02</wgt>
<wgt id='2345'>0.84695E+02</wgt>
<wgt id='2346'>0.84800E+02</wgt>
<wgt id='2347'>0.85356E+02</wgt>
<wgt id='2348'>0.85142E+02</wgt>
<wgt id='2349'>0.84937E+02</wgt>
<wgt id='2350'>0.85492E+02</wgt>
<wgt id='2351'>0.84999E+02</wgt>
<wgt id='2352'>0.84996E+02</wgt>
<wgt id='2353'>0.84328E+02</wgt>
<wgt id='2354'>0.84652E+02</wgt>
<wgt id='2355'>0.85010E+02</wgt>
<wgt id='2356'>0.84725E+02</wgt>
<wgt id='2357'>0.84846E+02</wgt>
<wgt id='2358'>0.84064E+02</wgt>
<wgt id='2359'>0.84307E+02</wgt>
<wgt id='2360'>0.84604E+02</wgt>
<wgt id='2361'>0.85184E+02</wgt>
<wgt id='2362'>0.85647E+02</wgt>
<wgt id='2363'>0.85339E+02</wgt>
<wgt id='2364'>0.85081E+02</wgt>
<wgt id='2365'>0.84994E+02</wgt>
<wgt id='2366'>0.85313E+02</wgt>
<wgt id='2367'>0.85228E+02</wgt>
<wgt id='2368'>0.85111E+02</wgt>
<wgt id='2369'>0.85125E+02</wgt>
<wgt id='2370'>0.85129E+02</wgt>
<wgt id='2371'>0.84545E+02</wgt>
<wgt id='2372'>0.85238E+02</wgt>
<wgt id='2373'>0.84904E+02</wgt>
<wgt id='2374'>0.84787E+02</wgt>
<wgt id='2375'>0.84694E+02</wgt>
<wgt id='2376'>0.85111E+02</wgt>
<wgt id='2377'>0.84674E+02</wgt>
<wgt id='2378'>0.84862E+02</wgt>
<wgt id='2379'>0.84736E+02</wgt>
<wgt id='2380'>0.84817E+02</wgt>
<wgt id='2381'>0.84738E+02</wgt>
<wgt id='2382'>0.84925E+02</wgt>
<wgt id='2383'>0.84816E+02</wgt>
<wgt id='2384'>0.84652E+02</wgt>
<wgt id='2385'>0.84817E+02</wgt>
<wgt id='2386'>0.84880E+02</wgt>
<wgt id='2387'>0.85144E+02</wgt>
<wgt id='2388'>0.84914E+02</wgt>
<wgt id='2389'>0.85173E+02</wgt>
<wgt id='2390'>0.84620E+02</wgt>
<wgt id='2391'>0.85188E+02</wgt>
<wgt id='2392'>0.85041E+02</wgt>
<wgt id='2393'>0.84484E+02</wgt>
<wgt id='2394'>0.84877E+02</wgt>
<wgt id='2395'>0.85267E+02</wgt>
<wgt id='2396'>0.84639E+02</wgt>
<wgt id='2397'>0.84608E+02</wgt>
<wgt id='2398'>0.84838E+02</wgt>
<wgt id='2399'>0.84985E+02</wgt>
<wgt id='2400'>0.85068E+02</wgt>
<wgt id='2401'>0.82854E+02</wgt>
<wgt id='2402'>0.88130E+02</wgt>
<wgt id='2500'>0.78172E+02</wgt>
<wgt id='2501'>0.80148E+02</wgt>
<wgt id='2600'>0.82502E+02</wgt>
<wgt id='2601'>0.82245E+02</wgt>
<wgt id='2602'>0.82045E+02</wgt>
<wgt id='2603'>0.82589E+02</wgt>
<wgt id='2604'>0.82368E+02</wgt>
<wgt id='2605'>0.81572E+02</wgt>
<wgt id='2606'>0.83118E+02</wgt>
<wgt id='2607'>0.82269E+02</wgt>
<wgt id='2608'>0.81715E+02</wgt>
<wgt id='2609'>0.82484E+02</wgt>
<wgt id='2610'>0.82289E+02</wgt>
<wgt id='2611'>0.82005E+02</wgt>
<wgt id='2612'>0.81991E+02</wgt>
<wgt id='2613'>0.82898E+02</wgt>
<wgt id='2614'>0.82269E+02</wgt>
<wgt id='2615'>0.82692E+02</wgt>
<wgt id='2616'>0.83617E+02</wgt>
<wgt id='2617'>0.83022E+02</wgt>
<wgt id='2618'>0.82141E+02</wgt>
<wgt id='2619'>0.83309E+02</wgt>
<wgt id='2620'>0.82092E+02</wgt>
<wgt id='2621'>0.82303E+02</wgt>
<wgt id='2622'>0.81937E+02</wgt>
<wgt id='2623'>0.82836E+02</wgt>
<wgt id='2624'>0.83189E+02</wgt>
<wgt id='2625'>0.82815E+02</wgt>
<wgt id='2626'>0.82169E+02</wgt>
<wgt id='2627'>0.81672E+02</wgt>
<wgt id='2628'>0.82411E+02</wgt>
<wgt id='2629'>0.82172E+02</wgt>
<wgt id='2630'>0.83101E+02</wgt>
<wgt id='2631'>0.82437E+02</wgt>
<wgt id='2632'>0.82392E+02</wgt>
<wgt id='2633'>0.82659E+02</wgt>
<wgt id='2634'>0.82346E+02</wgt>
<wgt id='2635'>0.82709E+02</wgt>
<wgt id='2636'>0.82360E+02</wgt>
<wgt id='2637'>0.82478E+02</wgt>
<wgt id='2638'>0.82422E+02</wgt>
<wgt id='2639'>0.82388E+02</wgt>
<wgt id='2640'>0.82264E+02</wgt>
<wgt id='2641'>0.82459E+02</wgt>
<wgt id='2642'>0.82351E+02</wgt>
<wgt id='2643'>0.82590E+02</wgt>
<wgt id='2644'>0.82283E+02</wgt>
<wgt id='2645'>0.82397E+02</wgt>
<wgt id='2646'>0.82686E+02</wgt>
<wgt id='2647'>0.82640E+02</wgt>
<wgt id='2648'>0.82549E+02</wgt>
<wgt id='2649'>0.82512E+02</wgt>
<wgt id='2650'>0.82312E+02</wgt>
<wgt id='2651'>0.82035E+02</wgt>
<wgt id='2652'>0.83191E+02</wgt>
<wgt id='2700'>0.81168E+02</wgt>
<wgt id='2701'>0.82035E+02</wgt>
<wgt id='2702'>0.81852E+02</wgt>
<wgt id='2703'>0.83037E+02</wgt>
<wgt id='2704'>0.83191E+02</wgt>
<wgt id='2705'>0.84156E+02</wgt>
<wgt id='2800'>0.83346E+02</wgt>
<wgt id='4000'>0.74341E+02</wgt>
<wgt id='4001'>0.72718E+02</wgt>
<wgt id='4002'>0.73437E+02</wgt>
<wgt id='4003'>0.72748E+02</wgt>
<wgt id='4004'>0.76711E+02</wgt>
<wgt id='4005'>0.72501E+02</wgt>
<wgt id='4006'>0.76212E+02</wgt>
<wgt id='4007'>0.72897E+02</wgt>
<wgt id='4008'>0.75326E+02</wgt>
<wgt id='4009'>0.72548E+02</wgt>
<wgt id='4010'>0.75807E+02</wgt>
<wgt id='4011'>0.74542E+02</wgt>
<wgt id='4012'>0.75127E+02</wgt>
<wgt id='4013'>0.73975E+02</wgt>
<wgt id='4014'>0.74067E+02</wgt>
<wgt id='4015'>0.76084E+02</wgt>
<wgt id='4016'>0.72626E+02</wgt>
<wgt id='4017'>0.75849E+02</wgt>
<wgt id='4018'>0.72398E+02</wgt>
<wgt id='4019'>0.76085E+02</wgt>
<wgt id='4020'>0.70011E+02</wgt>
<wgt id='4021'>0.75338E+02</wgt>
<wgt id='4022'>0.72706E+02</wgt>
<wgt id='4023'>0.74886E+02</wgt>
<wgt id='4024'>0.73414E+02</wgt>
<wgt id='4025'>0.73803E+02</wgt>
<wgt id='4026'>0.75791E+02</wgt>
<wgt id='4027'>0.71051E+02</wgt>
<wgt id='4028'>0.76877E+02</wgt>
<wgt id='4029'>0.72045E+02</wgt>
<wgt id='4030'>0.74732E+02</wgt>
<wgt id='4031'>0.72688E+02</wgt>
<wgt id='4032'>0.77835E+02</wgt>
<wgt id='4033'>0.72765E+02</wgt>
<wgt id='4034'>0.75292E+02</wgt>
<wgt id='4035'>0.72536E+02</wgt>
<wgt id='4036'>0.75523E+02</wgt>
<wgt id='4037'>0.76710E+02</wgt>
<wgt id='4038'>0.71309E+02</wgt>
<wgt id='4039'>0.72552E+02</wgt>
<wgt id='4040'>0.75472E+02</wgt>
<wgt id='4041'>0.73292E+02</wgt>
<wgt id='4042'>0.74898E+02</wgt>
<wgt id='4043'>0.73816E+02</wgt>
<wgt id='4044'>0.73902E+02</wgt>
<wgt id='4045'>0.74006E+02</wgt>
<wgt id='4046'>0.74413E+02</wgt>
<wgt id='4047'>0.73181E+02</wgt>
<wgt id='4048'>0.74667E+02</wgt>
<wgt id='4049'>0.72595E+02</wgt>
<wgt id='4050'>0.75552E+02</wgt>
<wgt id='4051'>0.74814E+02</wgt>
<wgt id='4052'>0.72430E+02</wgt>
<wgt id='4053'>0.72742E+02</wgt>
<wgt id='4054'>0.76292E+02</wgt>
<wgt id='4055'>0.74628E+02</wgt>
<wgt id='4056'>0.73701E+02</wgt>
<wgt id='4057'>0.74011E+02</wgt>
<wgt id='4058'>0.74578E+02</wgt>
<wgt id='4100'>0.74636E+02</wgt>
<wgt id='4101'>0.74480E+02</wgt>
<wgt id='4102'>0.74224E+02</wgt>
<wgt id='4103'>0.74133E+02</wgt>
<wgt id='4200'>0.73732E+02</wgt>
<wgt id='4201'>0.72731E+02</wgt>
<wgt id='4202'>0.72707E+02</wgt>
<wgt id='4203'>0.75096E+02</wgt>
<wgt id='4204'>0.72519E+02</wgt>
<wgt id='4205'>0.73933E+02</wgt>
<wgt id='4206'>0.72760E+02</wgt>
<wgt id='4207'>0.72151E+02</wgt>
<wgt id='4208'>0.72923E+02</wgt>
<wgt id='4209'>0.74307E+02</wgt>
<wgt id='4210'>0.72663E+02</wgt>
<wgt id='4211'>0.74142E+02</wgt>
<wgt id='4212'>0.73218E+02</wgt>
<wgt id='4213'>0.72621E+02</wgt>
<wgt id='4214'>0.74211E+02</wgt>
<wgt id='4215'>0.75340E+02</wgt>
<wgt id='4216'>0.71217E+02</wgt>
<wgt id='4217'>0.70890E+02</wgt>
<wgt id='4218'>0.75476E+02</wgt>
<wgt id='4219'>0.71453E+02</wgt>
<wgt id='4220'>0.76267E+02</wgt>
<wgt id='4221'>0.72574E+02</wgt>
<wgt id='4222'>0.75252E+02</wgt>
<wgt id='4223'>0.70395E+02</wgt>
<wgt id='4224'>0.76248E+02</wgt>
<wgt id='4225'>0.72466E+02</wgt>
<wgt id='4226'>0.74513E+02</wgt>
<wgt id='4227'>0.72447E+02</wgt>
<wgt id='4228'>0.74729E+02</wgt>
<wgt id='4229'>0.73120E+02</wgt>
<wgt id='4230'>0.73227E+02</wgt>
<wgt id='4231'>0.74016E+02</wgt>
<wgt id='4232'>0.72612E+02</wgt>
<wgt id='4233'>0.74299E+02</wgt>
<wgt id='4234'>0.73076E+02</wgt>
<wgt id='4235'>0.75921E+02</wgt>
<wgt id='4236'>0.71673E+02</wgt>
<wgt id='4237'>0.76066E+02</wgt>
<wgt id='4238'>0.71319E+02</wgt>
<wgt id='4239'>0.71561E+02</wgt>
<wgt id='4240'>0.74811E+02</wgt>
<wgt id='4241'>0.74723E+02</wgt>
<wgt id='4242'>0.72547E+02</wgt>
<wgt id='4243'>0.71047E+02</wgt>
<wgt id='4244'>0.77721E+02</wgt>
<wgt id='4245'>0.73389E+02</wgt>
<wgt id='4246'>0.73663E+02</wgt>
<wgt id='4247'>0.75674E+02</wgt>
<wgt id='4248'>0.72309E+02</wgt>
<wgt id='4249'>0.71551E+02</wgt>
<wgt id='4250'>0.76031E+02</wgt>
<wgt id='4251'>0.74946E+02</wgt>
<wgt id='4252'>0.72792E+02</wgt>
<wgt id='4253'>0.74028E+02</wgt>
<wgt id='4254'>0.73118E+02</wgt>
<wgt id='4255'>0.72582E+02</wgt>
<wgt id='4256'>0.74214E+02</wgt>
<wgt id='4257'>0.73056E+02</wgt>
<wgt id='4258'>0.73931E+02</wgt>
<wgt id='4300'>0.71517E+02</wgt>
<wgt id='4301'>0.75139E+02</wgt>
<wgt id='5000'>0.78924E+02</wgt>
<wgt id='5001'>0.78735E+02</wgt>
<wgt id='5002'>0.79165E+02</wgt>
<wgt id='5003'>0.78581E+02</wgt>
<wgt id='5004'>0.79236E+02</wgt>
<wgt id='5005'>0.79011E+02</wgt>
<wgt id='5006'>0.78778E+02</wgt>
<wgt id='5007'>0.78932E+02</wgt>
<wgt id='5008'>0.78916E+02</wgt>
<wgt id='5009'>0.79118E+02</wgt>
<wgt id='5010'>0.78723E+02</wgt>
<wgt id='5011'>0.77941E+02</wgt>
<wgt id='5012'>0.79875E+02</wgt>
<wgt id='5013'>0.79068E+02</wgt>
<wgt id='5014'>0.78821E+02</wgt>
<wgt id='5015'>0.79570E+02</wgt>
<wgt id='5016'>0.79570E+02</wgt>
<wgt id='5017'>0.78874E+02</wgt>
<wgt id='5018'>0.78956E+02</wgt>
<wgt id='5019'>0.78500E+02</wgt>
<wgt id='5020'>0.79511E+02</wgt>
<wgt id='5021'>0.78211E+02</wgt>
<wgt id='5022'>0.80054E+02</wgt>
<wgt id='5023'>0.78964E+02</wgt>
<wgt id='5024'>0.78826E+02</wgt>
<wgt id='5025'>0.79579E+02</wgt>
<wgt id='5026'>0.78198E+02</wgt>
<wgt id='5027'>0.79057E+02</wgt>
<wgt id='5028'>0.78562E+02</wgt>
<wgt id='5029'>0.78997E+02</wgt>
<wgt id='5030'>0.78882E+02</wgt>
<wgt id='5031'>0.79562E+02</wgt>
<wgt id='5032'>0.77073E+02</wgt>
<wgt id='5033'>0.79185E+02</wgt>
<wgt id='5034'>0.78644E+02</wgt>
<wgt id='5035'>0.78426E+02</wgt>
<wgt id='5036'>0.79599E+02</wgt>
<wgt id='5037'>0.78383E+02</wgt>
<wgt id='5038'>0.79223E+02</wgt>
<wgt id='5039'>0.79229E+02</wgt>
<wgt id='5040'>0.78117E+02</wgt>
<wgt id='5041'>0.78664E+02</wgt>
<wgt id='5042'>0.79187E+02</wgt>
<wgt id='5043'>0.79317E+02</wgt>
<wgt id='5044'>0.78511E+02</wgt>
<wgt id='5045'>0.78776E+02</wgt>
<wgt id='5046'>0.79304E+02</wgt>
<wgt id='5047'>0.78912E+02</wgt>
<wgt id='5048'>0.78797E+02</wgt>
<wgt id='5049'>0.78825E+02</wgt>
<wgt id='5050'>0.79094E+02</wgt>
<wgt id='5051'>0.77570E+02</wgt>
<wgt id='5052'>0.80171E+02</wgt>
<wgt id='5053'>0.78537E+02</wgt>
<wgt id='5054'>0.79331E+02</wgt>
<wgt id='5055'>0.79050E+02</wgt>
<wgt id='5056'>0.78773E+02</wgt>
<wgt id='5057'>0.77745E+02</wgt>
<wgt id='5058'>0.79545E+02</wgt>
<wgt id='5059'>0.78692E+02</wgt>
<wgt id='5060'>0.79030E+02</wgt>
<wgt id='5061'>0.77799E+02</wgt>
<wgt id='5062'>0.78950E+02</wgt>
<wgt id='5063'>0.80057E+02</wgt>
<wgt id='5064'>0.78738E+02</wgt>
<wgt id='5100'>0.78924E+02</wgt>
<wgt id='5101'>0.78783E+02</wgt>
<wgt id='6000'>0.77103E+02</wgt>
<wgt id='6001'>0.76786E+02</wgt>
<wgt id='6002'>0.76820E+02</wgt>
<wgt id='6003'>0.77342E+02</wgt>
<wgt id='6004'>0.74465E+02</wgt>
<wgt id='6005'>0.76916E+02</wgt>
<wgt id='6006'>0.77575E+02</wgt>
<wgt id='6007'>0.77174E+02</wgt>
<wgt id='6008'>0.77295E+02</wgt>
<wgt id='6009'>0.76730E+02</wgt>
<wgt id='6010'>0.76761E+02</wgt>
<wgt id='6011'>0.77693E+02</wgt>
<wgt id='6012'>0.77951E+02</wgt>
<wgt id='6013'>0.76690E+02</wgt>
<wgt id='6014'>0.77333E+02</wgt>
<wgt id='6015'>0.76951E+02</wgt>
<wgt id='6016'>0.78090E+02</wgt>
<wgt id='6017'>0.77409E+02</wgt>
<wgt id='6018'>0.77876E+02</wgt>
<wgt id='6019'>0.74868E+02</wgt>
<wgt id='6020'>0.77626E+02</wgt>
<wgt id='6021'>0.76873E+02</wgt>
<wgt id='6022'>0.76769E+02</wgt>
<wgt id='6023'>0.76742E+02</wgt>
<wgt id='6024'>0.77614E+02</wgt>
<wgt id='6025'>0.77835E+02</wgt>
<wgt id='6026'>0.77230E+02</wgt>
<wgt id='6027'>0.76953E+02</wgt>
<wgt id='6028'>0.77102E+02</wgt>
<wgt id='6029'>0.77233E+02</wgt>
<wgt id='6030'>0.77183E+02</wgt>
<wgt id='6031'>0.76876E+02</wgt>
<wgt id='6032'>0.77376E+02</wgt>
<wgt id='6033'>0.77278E+02</wgt>
<wgt id='6034'>0.77401E+02</wgt>
<wgt id='6035'>0.77334E+02</wgt>
<wgt id='6036'>0.76967E+02</wgt>
<wgt id='6037'>0.76926E+02</wgt>
<wgt id='6038'>0.78863E+02</wgt>
<wgt id='6039'>0.77214E+02</wgt>
<wgt id='6040'>0.77388E+02</wgt>
<wgt id='6041'>0.76431E+02</wgt>
<wgt id='6042'>0.78799E+02</wgt>
<wgt id='7000'>0.45113E+02</wgt>
<wgt id='7001'>0.45128E+02</wgt>
<wgt id='7002'>0.44967E+02</wgt>
<wgt id='7003'>0.44891E+02</wgt>
<wgt id='7004'>0.45204E+02</wgt>
<wgt id='7005'>0.45076E+02</wgt>
<wgt id='7006'>0.45019E+02</wgt>
<wgt id='7007'>0.44716E+02</wgt>
<wgt id='7008'>0.45374E+02</wgt>
<wgt id='7009'>0.45200E+02</wgt>
<wgt id='7010'>0.44897E+02</wgt>
<wgt id='7011'>0.45262E+02</wgt>
<wgt id='7012'>0.44837E+02</wgt>
<wgt id='7013'>0.44984E+02</wgt>
<wgt id='7014'>0.45109E+02</wgt>
<wgt id='7015'>0.45088E+02</wgt>
<wgt id='7016'>0.44941E+02</wgt>
<wgt id='7017'>0.45033E+02</wgt>
<wgt id='7018'>0.45061E+02</wgt>
<wgt id='7019'>0.45177E+02</wgt>
<wgt id='7020'>0.44922E+02</wgt>
<wgt id='7021'>0.46031E+02</wgt>
<wgt id='7022'>0.44074E+02</wgt>
<wgt id='7023'>0.46837E+02</wgt>
<wgt id='7024'>0.43480E+02</wgt>
<wgt id='7025'>0.49585E+02</wgt>
<wgt id='7026'>0.41530E+02</wgt>
<wgt id='7027'>0.48170E+02</wgt>
<wgt id='7028'>0.42437E+02</wgt>
<wgt id='8000'>0.73460E+02</wgt>
<wgt id='8001'>0.73448E+02</wgt>
<wgt id='8002'>0.73483E+02</wgt>
<wgt id='8003'>0.73292E+02</wgt>
<wgt id='8004'>0.73466E+02</wgt>
<wgt id='8005'>0.73782E+02</wgt>
<wgt id='8006'>0.72872E+02</wgt>
<wgt id='8007'>0.73811E+02</wgt>
<wgt id='8008'>0.73453E+02</wgt>
<wgt id='8009'>0.73004E+02</wgt>
<wgt id='8010'>0.73458E+02</wgt>
<wgt id='8011'>0.73577E+02</wgt>
<wgt id='8012'>0.73386E+02</wgt>
<wgt id='8013'>0.73491E+02</wgt>
<wgt id='8014'>0.73556E+02</wgt>
<wgt id='8015'>0.73522E+02</wgt>
<wgt id='8016'>0.73207E+02</wgt>
<wgt id='8017'>0.73369E+02</wgt>
<wgt id='8018'>0.73152E+02</wgt>
<wgt id='8019'>0.73322E+02</wgt>
<wgt id='8020'>0.74504E+02</wgt>
<wgt id='8021'>0.73386E+02</wgt>
<wgt id='8022'>0.72895E+02</wgt>
<wgt id='8023'>0.72978E+02</wgt>
<wgt id='8024'>0.73436E+02</wgt>
<wgt id='8025'>0.73318E+02</wgt>
<wgt id='8026'>0.73871E+02</wgt>
<wgt id='8027'>0.72844E+02</wgt>
<wgt id='8028'>0.74109E+02</wgt>
<wgt id='8029'>0.73320E+02</wgt>
<wgt id='3000'>0.81104E+02</wgt>
<wgt id='3001'>0.89416E+02</wgt>
<wgt id='3002'>0.83002E+02</wgt>
<wgt id='3003'>0.78320E+02</wgt>
<wgt id='3004'>0.83157E+02</wgt>
<wgt id='3005'>0.83694E+02</wgt>
<wgt id='3006'>0.83517E+02</wgt>
<wgt id='3007'>0.80499E+02</wgt>
<wgt id='3008'>0.77345E+02</wgt>
<wgt id='3009'>0.75414E+02</wgt>
<wgt id='3010'>0.81325E+02</wgt>
<wgt id='3011'>0.79146E+02</wgt>
<wgt id='3012'>0.81200E+02</wgt>
<wgt id='3013'>0.83667E+02</wgt>
<wgt id='3014'>0.82864E+02</wgt>
<wgt id='3015'>0.78510E+02</wgt>
<wgt id='3016'>0.80934E+02</wgt>
<wgt id='3017'>0.84611E+02</wgt>
<wgt id='3018'>0.78953E+02</wgt>
<wgt id='3019'>0.85345E+02</wgt>
<wgt id='3020'>0.77996E+02</wgt>
<wgt id='3021'>0.78295E+02</wgt>
<wgt id='3022'>0.84459E+02</wgt>
<wgt id='3023'>0.83201E+02</wgt>
<wgt id='3024'>0.82713E+02</wgt>
<wgt id='3025'>0.76429E+02</wgt>
<wgt id='3026'>0.80830E+02</wgt>
<wgt id='3027'>0.86454E+02</wgt>
<wgt id='3028'>0.82445E+02</wgt>
<wgt id='3029'>0.80861E+02</wgt>
<wgt id='3030'>0.83966E+02</wgt>
<wgt id='3031'>0.79657E+02</wgt>
<wgt id='3032'>0.80446E+02</wgt>
<wgt id='3033'>0.83054E+02</wgt>
<wgt id='3034'>0.79877E+02</wgt>
<wgt id='3035'>0.78581E+02</wgt>
<wgt id='3036'>0.79616E+02</wgt>
<wgt id='3037'>0.80449E+02</wgt>
<wgt id='3038'>0.78450E+02</wgt>
<wgt id='3039'>0.78626E+02</wgt>
<wgt id='3040'>0.77204E+02</wgt>
<wgt id='3041'>0.81927E+02</wgt>
<wgt id='3042'>0.80603E+02</wgt>
<wgt id='3043'>0.89343E+02</wgt>
<wgt id='3044'>0.81234E+02</wgt>
<wgt id='3045'>0.81460E+02</wgt>
<wgt id='3046'>0.80548E+02</wgt>
<wgt id='3047'>0.82349E+02</wgt>
<wgt id='3048'>0.80345E+02</wgt>
<wgt id='3049'>0.82114E+02</wgt>
<wgt id='3050'>0.82603E+02</wgt>
<wgt id='3051'>0.82414E+02</wgt>
<wgt id='3052'>0.77217E+02</wgt>
<wgt id='3053'>0.79770E+02</wgt>
<wgt id='3054'>0.87406E+02</wgt>
<wgt id='3055'>0.83176E+02</wgt>
<wgt id='3056'>0.85234E+02</wgt>
<wgt id='3057'>0.82923E+02</wgt>
<wgt id='3058'>0.81759E+02</wgt>
<wgt id='3059'>0.77296E+02</wgt>
<wgt id='3060'>0.80541E+02</wgt>
<wgt id='3061'>0.78919E+02</wgt>
<wgt id='3062'>0.84085E+02</wgt>
<wgt id='3063'>0.83080E+02</wgt>
<wgt id='3064'>0.81895E+02</wgt>
<wgt id='3065'>0.80273E+02</wgt>
<wgt id='3066'>0.81869E+02</wgt>
<wgt id='3067'>0.86410E+02</wgt>
<wgt id='3068'>0.82964E+02</wgt>
<wgt id='3069'>0.79408E+02</wgt>
<wgt id='3070'>0.80123E+02</wgt>
<wgt id='3071'>0.84702E+02</wgt>
<wgt id='3072'>0.85905E+02</wgt>
<wgt id='3073'>0.73796E+02</wgt>
<wgt id='3074'>0.75146E+02</wgt>
<wgt id='3075'>0.82869E+02</wgt>
<wgt id='3076'>0.85943E+02</wgt>
<wgt id='3077'>0.79005E+02</wgt>
<wgt id='3078'>0.76061E+02</wgt>
<wgt id='3079'>0.80895E+02</wgt>
<wgt id='3080'>0.83973E+02</wgt>
<wgt id='3081'>0.81456E+02</wgt>
<wgt id='3082'>0.80934E+02</wgt>
<wgt id='3083'>0.78595E+02</wgt>
<wgt id='3084'>0.81449E+02</wgt>
<wgt id='3085'>0.76240E+02</wgt>
<wgt id='3086'>0.87530E+02</wgt>
<wgt id='3087'>0.77025E+02</wgt>
<wgt id='3088'>0.85167E+02</wgt>
<wgt id='3089'>0.68298E+02</wgt>
<wgt id='3090'>0.78398E+02</wgt>
<wgt id='3091'>0.79301E+02</wgt>
<wgt id='3092'>0.70172E+02</wgt>
<wgt id='3093'>0.80143E+02</wgt>
<wgt id='3094'>0.82943E+02</wgt>
<wgt id='3095'>0.80074E+02</wgt>
<wgt id='3096'>0.78267E+02</wgt>
<wgt id='3097'>0.85873E+02</wgt>
<wgt id='3098'>0.86037E+02</wgt>
<wgt id='3099'>0.81726E+02</wgt>
<wgt id='3100'>0.80019E+02</wgt>
<wgt id='3200'>0.82324E+02</wgt>
<wgt id='3201'>0.81414E+02</wgt>
<wgt id='3202'>0.86135E+02</wgt>
<wgt id='3203'>0.79078E+02</wgt>
<wgt id='3204'>0.87546E+02</wgt>
<wgt id='3205'>0.85237E+02</wgt>
<wgt id='3206'>0.81318E+02</wgt>
<wgt id='3207'>0.81121E+02</wgt>
<wgt id='3208'>0.83736E+02</wgt>
<wgt id='3209'>0.82934E+02</wgt>
<wgt id='3210'>0.80806E+02</wgt>
<wgt id='3211'>0.81317E+02</wgt>
<wgt id='3212'>0.78266E+02</wgt>
<wgt id='3213'>0.82623E+02</wgt>
<wgt id='3214'>0.84534E+02</wgt>
<wgt id='3215'>0.82035E+02</wgt>
<wgt id='3216'>0.86843E+02</wgt>
<wgt id='3217'>0.76580E+02</wgt>
<wgt id='3218'>0.78622E+02</wgt>
<wgt id='3219'>0.79148E+02</wgt>
<wgt id='3220'>0.80764E+02</wgt>
<wgt id='3221'>0.86856E+02</wgt>
<wgt id='3222'>0.85334E+02</wgt>
<wgt id='3223'>0.83448E+02</wgt>
<wgt id='3224'>0.82475E+02</wgt>
<wgt id='3225'>0.86149E+02</wgt>
<wgt id='3226'>0.78406E+02</wgt>
<wgt id='3227'>0.85657E+02</wgt>
<wgt id='3228'>0.84952E+02</wgt>
<wgt id='3229'>0.81862E+02</wgt>
<wgt id='3230'>0.83379E+02</wgt>
<wgt id='3231'>0.82665E+02</wgt>
<wgt id='3232'>0.84696E+02</wgt>
<wgt id='3233'>0.86252E+02</wgt>
<wgt id='3234'>0.81199E+02</wgt>
<wgt id='3235'>0.85487E+02</wgt>
<wgt id='3236'>0.82993E+02</wgt>
<wgt id='3237'>0.83414E+02</wgt>
<wgt id='3238'>0.82832E+02</wgt>
<wgt id='3239'>0.84235E+02</wgt>
<wgt id='3240'>0.76735E+02</wgt>
<wgt id='3241'>0.83776E+02</wgt>
<wgt id='3242'>0.81110E+02</wgt>
<wgt id='3243'>0.81837E+02</wgt>
<wgt id='3244'>0.85890E+02</wgt>
<wgt id='3245'>0.77564E+02</wgt>
<wgt id='3246'>0.85655E+02</wgt>
<wgt id='3247'>0.81297E+02</wgt>
<wgt id='3248'>0.79813E+02</wgt>
<wgt id='3249'>0.86484E+02</wgt>
<wgt id='3250'>0.81749E+02</wgt>
<wgt id='3251'>0.79888E+02</wgt>
<wgt id='3252'>0.85857E+02</wgt>
<wgt id='3253'>0.80510E+02</wgt>
<wgt id='3254'>0.79360E+02</wgt>
<wgt id='3255'>0.82425E+02</wgt>
<wgt id='3256'>0.86403E+02</wgt>
<wgt id='3257'>0.81467E+02</wgt>
<wgt id='3258'>0.82222E+02</wgt>
<wgt id='3259'>0.87837E+02</wgt>
<wgt id='3260'>0.83302E+02</wgt>
<wgt id='3261'>0.88853E+02</wgt>
<wgt id='3262'>0.76304E+02</wgt>
<wgt id='3263'>0.77632E+02</wgt>
<wgt id='3264'>0.78052E+02</wgt>
<wgt id='3265'>0.84994E+02</wgt>
<wgt id='3266'>0.83414E+02</wgt>
<wgt id='3267'>0.82269E+02</wgt>
<wgt id='3268'>0.89019E+02</wgt>
<wgt id='3269'>0.84989E+02</wgt>
<wgt id='3270'>0.76705E+02</wgt>
<wgt id='3271'>0.78591E+02</wgt>
<wgt id='3272'>0.78811E+02</wgt>
<wgt id='3273'>0.81570E+02</wgt>
<wgt id='3274'>0.83054E+02</wgt>
<wgt id='3275'>0.82855E+02</wgt>
<wgt id='3276'>0.81980E+02</wgt>
<wgt id='3277'>0.83936E+02</wgt>
<wgt id='3278'>0.83675E+02</wgt>
<wgt id='3279'>0.83410E+02</wgt>
<wgt id='3280'>0.82682E+02</wgt>
<wgt id='3281'>0.83254E+02</wgt>
<wgt id='3282'>0.83830E+02</wgt>
<wgt id='3283'>0.77726E+02</wgt>
<wgt id='3284'>0.80451E+02</wgt>
<wgt id='3285'>0.84076E+02</wgt>
<wgt id='3286'>0.74761E+02</wgt>
<wgt id='3287'>0.79571E+02</wgt>
<wgt id='3288'>0.78506E+02</wgt>
<wgt id='3289'>0.80858E+02</wgt>
<wgt id='3290'>0.85974E+02</wgt>
<wgt id='3291'>0.79335E+02</wgt>
<wgt id='3292'>0.78550E+02</wgt>
<wgt id='3293'>0.83109E+02</wgt>
<wgt id='3294'>0.82093E+02</wgt>
<wgt id='3295'>0.79328E+02</wgt>
<wgt id='3296'>0.78675E+02</wgt>
<wgt id='3297'>0.87937E+02</wgt>
<wgt id='3298'>0.83399E+02</wgt>
<wgt id='3299'>0.80721E+02</wgt>
<wgt id='3300'>0.84070E+02</wgt>
<wgt id='3301'>0.82035E+02</wgt>
<wgt id='3302'>0.83191E+02</wgt>
<wgt id='3400'>0.77434E+02</wgt>
<wgt id='3401'>0.74850E+02</wgt>
<wgt id='3402'>0.78243E+02</wgt>
<wgt id='3403'>0.80304E+02</wgt>
<wgt id='3404'>0.77495E+02</wgt>
<wgt id='3405'>0.75558E+02</wgt>
<wgt id='3406'>0.80310E+02</wgt>
<wgt id='3407'>0.75398E+02</wgt>
<wgt id='3408'>0.75869E+02</wgt>
<wgt id='3409'>0.76007E+02</wgt>
<wgt id='3410'>0.79006E+02</wgt>
<wgt id='3411'>0.75424E+02</wgt>
<wgt id='3412'>0.72579E+02</wgt>
<wgt id='3413'>0.76354E+02</wgt>
<wgt id='3414'>0.78361E+02</wgt>
<wgt id='3415'>0.77781E+02</wgt>
<wgt id='3416'>0.82499E+02</wgt>
<wgt id='3417'>0.79510E+02</wgt>
<wgt id='3418'>0.78324E+02</wgt>
<wgt id='3419'>0.77842E+02</wgt>
<wgt id='3420'>0.78998E+02</wgt>
<wgt id='3421'>0.78177E+02</wgt>
<wgt id='3422'>0.75352E+02</wgt>
<wgt id='3423'>0.76374E+02</wgt>
<wgt id='3424'>0.78293E+02</wgt>
<wgt id='3425'>0.80093E+02</wgt>
<wgt id='3426'>0.76557E+02</wgt>
<wgt id='3427'>0.83827E+02</wgt>
<wgt id='3428'>0.79236E+02</wgt>
<wgt id='3429'>0.79000E+02</wgt>
<wgt id='3430'>0.72156E+02</wgt>
<wgt id='3431'>0.77407E+02</wgt>
<wgt id='3432'>0.81102E+02</wgt>
<wgt id='3433'>0.78542E+02</wgt>
<wgt id='3434'>0.77517E+02</wgt>
<wgt id='3435'>0.73716E+02</wgt>
<wgt id='3436'>0.78178E+02</wgt>
<wgt id='3437'>0.81100E+02</wgt>
<wgt id='3438'>0.78695E+02</wgt>
<wgt id='3439'>0.76245E+02</wgt>
<wgt id='3440'>0.80022E+02</wgt>
<wgt id='3441'>0.78931E+02</wgt>
<wgt id='3442'>0.83629E+02</wgt>
<wgt id='3443'>0.78446E+02</wgt>
<wgt id='3444'>0.75947E+02</wgt>
<wgt id='3445'>0.74438E+02</wgt>
<wgt id='3446'>0.76075E+02</wgt>
<wgt id='3447'>0.74319E+02</wgt>
<wgt id='3448'>0.76429E+02</wgt>
<wgt id='3449'>0.80615E+02</wgt>
<wgt id='3450'>0.75783E+02</wgt>
<wgt id='3451'>0.73725E+02</wgt>
<wgt id='3452'>0.77823E+02</wgt>
<wgt id='3453'>0.79609E+02</wgt>
<wgt id='3454'>0.70495E+02</wgt>
<wgt id='3455'>0.75596E+02</wgt>
<wgt id='3456'>0.74366E+02</wgt>
<wgt id='3457'>0.75068E+02</wgt>
<wgt id='3458'>0.78230E+02</wgt>
<wgt id='3459'>0.76051E+02</wgt>
<wgt id='3460'>0.74226E+02</wgt>
<wgt id='3461'>0.80215E+02</wgt>
<wgt id='3462'>0.78374E+02</wgt>
<wgt id='3463'>0.76722E+02</wgt>
<wgt id='3464'>0.77377E+02</wgt>
<wgt id='3465'>0.74419E+02</wgt>
<wgt id='3466'>0.74504E+02</wgt>
<wgt id='3467'>0.77622E+02</wgt>
<wgt id='3468'>0.81358E+02</wgt>
<wgt id='3469'>0.76171E+02</wgt>
<wgt id='3470'>0.83419E+02</wgt>
<wgt id='3471'>0.76904E+02</wgt>
<wgt id='3472'>0.73521E+02</wgt>
<wgt id='3473'>0.77353E+02</wgt>
<wgt id='3474'>0.78626E+02</wgt>
<wgt id='3475'>0.76728E+02</wgt>
<wgt id='3476'>0.78646E+02</wgt>
<wgt id='3477'>0.76270E+02</wgt>
<wgt id='3478'>0.76501E+02</wgt>
<wgt id='3479'>0.78157E+02</wgt>
<wgt id='3480'>0.81392E+02</wgt>
<wgt id='3481'>0.80490E+02</wgt>
<wgt id='3482'>0.76012E+02</wgt>
<wgt id='3483'>0.76783E+02</wgt>
<wgt id='3484'>0.78736E+02</wgt>
<wgt id='3485'>0.78010E+02</wgt>
<wgt id='3486'>0.80246E+02</wgt>
<wgt id='3487'>0.74490E+02</wgt>
<wgt id='3488'>0.76669E+02</wgt>
<wgt id='3489'>0.77574E+02</wgt>
<wgt id='3490'>0.75917E+02</wgt>
<wgt id='3491'>0.76391E+02</wgt>
<wgt id='3492'>0.77660E+02</wgt>
<wgt id='3493'>0.76043E+02</wgt>
<wgt id='3494'>0.79637E+02</wgt>
<wgt id='3495'>0.75496E+02</wgt>
<wgt id='3496'>0.78219E+02</wgt>
<wgt id='3497'>0.79241E+02</wgt>
<wgt id='3498'>0.78656E+02</wgt>
<wgt id='3499'>0.76217E+02</wgt>
<wgt id='3500'>0.73599E+02</wgt>
</rwgt>
</event>
<event>
     13 322200  8.11039E+01  8.03185E+01 -1.00000E+00  1.26562E-01
       2    -1     0     0   502     0  0.000000000E+00  0.000000000E+00  8.344533734E+02  8.344533734E+02  0.000000000E+00  0.00000E+00  9.000E+00
      -2    -1     0     0     0   512  0.000000000E+00  0.000000000E+00 -1.535197072E+02  1.535197072E+02  0.000000000E+00  0.00000E+00  9.000E+00
       6     2     1     2   502     0 -1.050284356E+02 -2.325917379E+02  3.500149446E+02  4.660708504E+02  1.719932770E+02  0.00000E+00  9.000E+00
      -6     2     1     2     0   513  1.786628769E+02  2.005131187E+02  2.929547250E+02  4.330634223E+02  1.720334922E+02  0.00000E+00  9.000E+00
      21     1     1     2   513   512 -7.363444133E+01  3.207861914E+01  3.796399672E+01  8.883880797E+01  4.768371582E-07  0.00000E+00  9.000E+00
      24     2     3     3     0     0 -1.147559136E+02 -1.195575561E+02  1.287085071E+02  2.173270205E+02  5.658820623E+01  0.00000E+00  9.000E+00
       5     1     3     3   502     0  9.727478007E+00 -1.130341817E+02  2.213064374E+02  2.487438299E+02  5.060000000E+00  0.00000E+00 -1.000E+00
     -24     2     4     4     0     0  1.212377596E+02  2.032459511E+02  1.875471769E+02  3.128907662E+02  8.197058641E+01  0.00000E+00  9.000E+00
      -5     1     4     4     0   513  5.742511732E+01 -2.732832339E+00  1.054075481E+02  1.201726560E+02  5.060000000E+00  0.00000E+00  1.000E+00
     -11     1     6     6     0     0 -3.144725541E+01 -6.469043251E+01  7.546611921E+01  1.042540986E+02  5.100000000E-04  0.00000E+00  1.000E+00
      12     1     6     6     0     0 -8.330865819E+01 -5.486712361E+01  5.324238793E+01  1.130729218E+02  0.000000000E+00  0.00000E+00 -1.000E+00
      11     1     8     8     0     0  5.597659917E+01  7.994420184E+01  1.286053053E+02  1.614428060E+02  5.100000000E-04  0.00000E+00 -1.000E+00
     -12     1     8     8     0     0  6.526116043E+01  1.233017492E+02  5.894187163E+01  1.514479602E+02  0.000000000E+00  0.00000E+00  1.000E+00
#rwgt            1           8   36.089865652205653               10       36731           0
<rwgt>
<wgt id='1001'>0.81104E+02</wgt>
<wgt id='1002'>0.74525E+02</wgt>
<wgt id='1003'>0.87433E+02</wgt>
<wgt id='1004'>0.78512E+02</wgt>
<wgt id='1005'>0.73287E+02</wgt>
<wgt id='1006'>0.83485E+02</wgt>
<wgt id='1007'>0.80739E+02</wgt>
<wgt id='1008'>0.72261E+02</wgt>
<wgt id='1009'>0.88987E+02</wgt>
<wgt id='2000'>0.81104E+02</wgt>
<wgt id='2001'>0.81097E+02</wgt>
<wgt id='2002'>0.80932E+02</wgt>
<wgt id='2003'>0.80895E+02</wgt>
<wgt id='2004'>0.81109E+02</wgt>
<wgt id='2005'>0.81080E+02</wgt>
<wgt id='2006'>0.80832E+02</wgt>
<wgt id='2007'>0.80958E+02</wgt>
<wgt id='2008'>0.80679E+02</wgt>
<wgt id='2009'>0.81620E+02</wgt>
<wgt id='2010'>0.80727E+02</wgt>
<wgt id='2011'>0.81224E+02</wgt>
<wgt id='2012'>0.80892E+02</wgt>
<wgt id='2013'>0.81285E+02</wgt>
<wgt id='2014'>0.81181E+02</wgt>
<wgt id='2015'>0.81879E+02</wgt>
<wgt id='2016'>0.80883E+02</wgt>
<wgt id='2017'>0.81029E+02</wgt>
<wgt id='2018'>0.80623E+02</wgt>
<wgt id='2019'>0.81296E+02</wgt>
<wgt id='2020'>0.80809E+02</wgt>
<wgt id='2021'>0.80721E+02</wgt>
<wgt id='2022'>0.81659E+02</wgt>
<wgt id='2023'>0.80845E+02</wgt>
<wgt id='2024'>0.80590E+02</wgt>
<wgt id='2025'>0.81003E+02</wgt>
<wgt id='2026'>0.80969E+02</wgt>
<wgt id='2027'>0.81394E+02</wgt>
<wgt id='2028'>0.81388E+02</wgt>
<wgt id='2029'>0.81730E+02</wgt>
<wgt id='2030'>0.81271E+02</wgt>
<wgt id='2031'>0.82090E+02</wgt>
<wgt id='2032'>0.80937E+02</wgt>
<wgt id='2033'>0.81246E+02</wgt>
<wgt id='2034'>0.81341E+02</wgt>
<wgt id='2035'>0.80975E+02</wgt>
<wgt id='2036'>0.80638E+02</wgt>
<wgt id='2037'>0.81581E+02</wgt>
<wgt id='2038'>0.81155E+02</wgt>
<wgt id='2039'>0.81146E+02</wgt>
<wgt id='2040'>0.81310E+02</wgt>
<wgt id='2041'>0.81324E+02</wgt>
<wgt id='2042'>0.81044E+02</wgt>
<wgt id='2043'>0.81231E+02</wgt>
<wgt id='2044'>0.81147E+02</wgt>
<wgt id='2045'>0.81082E+02</wgt>
<wgt id='2046'>0.80966E+02</wgt>
<wgt id='2047'>0.80982E+02</wgt>
<wgt id='2048'>0.81054E+02</wgt>
<wgt id='2049'>0.80904E+02</wgt>
<wgt id='2050'>0.81011E+02</wgt>
<wgt id='2051'>0.81114E+02</wgt>
<wgt id='2052'>0.81184E+02</wgt>
<wgt id='2053'>0.80972E+02</wgt>
<wgt id='2054'>0.81186E+02</wgt>
<wgt id='2055'>0.81184E+02</wgt>
<wgt id='2056'>0.81283E+02</wgt>
<wgt id='2057'>0.81421E+02</wgt>
<wgt id='2058'>0.81104E+02</wgt>
<wgt id='2059'>0.81259E+02</wgt>
<wgt id='2060'>0.81136E+02</wgt>
<wgt id='2061'>0.81139E+02</wgt>
<wgt id='2062'>0.81004E+02</wgt>
<wgt id='2063'>0.81083E+02</wgt>
<wgt id='2064'>0.81113E+02</wgt>
<wgt id='2065'>0.81119E+02</wgt>
<wgt id='2066'>0.81202E+02</wgt>
<wgt id='2067'>0.81122E+02</wgt>
<wgt id='2068'>0.81081E+02</wgt>
<wgt id='2069'>0.81118E+02</wgt>
<wgt id='2070'>0.81048E+02</wgt>
<wgt id='2071'>0.81134E+02</wgt>
<wgt id='2072'>0.81119E+02</wgt>
<wgt id='2073'>0.81127E+02</wgt>
<wgt id='2074'>0.81172E+02</wgt>
<wgt id='2075'>0.81132E+02</wgt>
<wgt id='2076'>0.81048E+02</wgt>
<wgt id='2077'>0.81179E+02</wgt>
<wgt id='2078'>0.81152E+02</wgt>
<wgt id='2079'>0.81016E+02</wgt>
<wgt id='2080'>0.81152E+02</wgt>
<wgt id='2081'>0.81035E+02</wgt>
<wgt id='2082'>0.81099E+02</wgt>
<wgt id='2083'>0.81118E+02</wgt>
<wgt id='2084'>0.81163E+02</wgt>
<wgt id='2085'>0.81098E+02</wgt>
<wgt id='2086'>0.80983E+02</wgt>
<wgt id='2087'>0.81080E+02</wgt>
<wgt id='2088'>0.81002E+02</wgt>
<wgt id='2089'>0.81157E+02</wgt>
<wgt id='2090'>0.81118E+02</wgt>
<wgt id='2091'>0.81135E+02</wgt>
<wgt id='2092'>0.81167E+02</wgt>
<wgt id='2093'>0.81109E+02</wgt>
<wgt id='2094'>0.81107E+02</wgt>
<wgt id='2095'>0.81125E+02</wgt>
<wgt id='2096'>0.81134E+02</wgt>
<wgt id='2097'>0.81101E+02</wgt>
<wgt id='2098'>0.81136E+02</wgt>
<wgt id='2099'>0.81118E+02</wgt>
<wgt id='2100'>0.81104E+02</wgt>
<wgt id='2101'>0.78822E+02</wgt>
<wgt id='2102'>0.83549E+02</wgt>
<wgt id='2200'>0.81177E+02</wgt>
<wgt id='2201'>0.70085E+02</wgt>
<wgt id='2202'>0.72114E+02</wgt>
<wgt id='2203'>0.74747E+02</wgt>
<wgt id='2204'>0.77032E+02</wgt>
<wgt id='2205'>0.80054E+02</wgt>
<wgt id='2206'>0.82224E+02</wgt>
<wgt id='2207'>0.85712E+02</wgt>
<wgt id='2208'>0.87825E+02</wgt>
<wgt id='2300'>0.82648E+02</wgt>
<wgt id='2301'>0.82664E+02</wgt>
<wgt id='2302'>0.82679E+02</wgt>
<wgt id='2303'>0.82648E+02</wgt>
<wgt id='2304'>0.82711E+02</wgt>
<wgt id='2305'>0.82707E+02</wgt>
<wgt id='2306'>0.82625E+02</wgt>
<wgt id='2307'>0.82797E+02</wgt>
<wgt id='2308'>0.82563E+02</wgt>
<wgt id='2309'>0.82876E+02</wgt>
<wgt id='2310'>0.82276E+02</wgt>
<wgt id='2311'>0.82578E+02</wgt>
<wgt id='2312'>0.82609E+02</wgt>
<wgt id='2313'>0.82732E+02</wgt>
<wgt id='2314'>0.83109E+02</wgt>
<wgt id='2315'>0.82143E+02</wgt>
<wgt id='2316'>0.82834E+02</wgt>
<wgt id='2317'>0.82500E+02</wgt>
<wgt id='2318'>0.82769E+02</wgt>
<wgt id='2319'>0.82453E+02</wgt>
<wgt id='2320'>0.82115E+02</wgt>
<wgt id='2321'>0.83168E+02</wgt>
<wgt id='2322'>0.82790E+02</wgt>
<wgt id='2323'>0.82911E+02</wgt>
<wgt id='2324'>0.82716E+02</wgt>
<wgt id='2325'>0.82111E+02</wgt>
<wgt id='2326'>0.82522E+02</wgt>
<wgt id='2327'>0.82764E+02</wgt>
<wgt id='2328'>0.82918E+02</wgt>
<wgt id='2329'>0.82979E+02</wgt>
<wgt id='2330'>0.81516E+02</wgt>
<wgt id='2331'>0.82668E+02</wgt>
<wgt id='2332'>0.82386E+02</wgt>
<wgt id='2333'>0.83153E+02</wgt>
<wgt id='2334'>0.82612E+02</wgt>
<wgt id='2335'>0.82640E+02</wgt>
<wgt id='2336'>0.82537E+02</wgt>
<wgt id='2337'>0.82192E+02</wgt>
<wgt id='2338'>0.82481E+02</wgt>
<wgt id='2339'>0.82624E+02</wgt>
<wgt id='2340'>0.82608E+02</wgt>
<wgt id='2341'>0.82470E+02</wgt>
<wgt id='2342'>0.82617E+02</wgt>
<wgt id='2343'>0.82519E+02</wgt>
<wgt id='2344'>0.82522E+02</wgt>
<wgt id='2345'>0.82666E+02</wgt>
<wgt id='2346'>0.82604E+02</wgt>
<wgt id='2347'>0.82550E+02</wgt>
<wgt id='2348'>0.82770E+02</wgt>
<wgt id='2349'>0.82750E+02</wgt>
<wgt id='2350'>0.82639E+02</wgt>
<wgt id='2351'>0.82790E+02</wgt>
<wgt id='2352'>0.82647E+02</wgt>
<wgt id='2353'>0.82515E+02</wgt>
<wgt id='2354'>0.82529E+02</wgt>
<wgt id='2355'>0.82597E+02</wgt>
<wgt id='2356'>0.82706E+02</wgt>
<wgt id='2357'>0.82617E+02</wgt>
<wgt id='2358'>0.82562E+02</wgt>
<wgt id='2359'>0.82747E+02</wgt>
<wgt id='2360'>0.82649E+02</wgt>
<wgt id='2361'>0.82657E+02</wgt>
<wgt id='2362'>0.82584E+02</wgt>
<wgt id='2363'>0.82798E+02</wgt>
<wgt id='2364'>0.82570E+02</wgt>
<wgt id='2365'>0.82690E+02</wgt>
<wgt id='2366'>0.82760E+02</wgt>
<wgt id='2367'>0.82400E+02</wgt>
<wgt id='2368'>0.82666E+02</wgt>
<wgt id='2369'>0.82613E+02</wgt>
<wgt id='2370'>0.82413E+02</wgt>
<wgt id='2371'>0.82642E+02</wgt>
<wgt id='2372'>0.82663E+02</wgt>
<wgt id='2373'>0.82573E+02</wgt>
<wgt id='2374'>0.82883E+02</wgt>
<wgt id='2375'>0.82467E+02</wgt>
<wgt id='2376'>0.82736E+02</wgt>
<wgt id='2377'>0.82598E+02</wgt>
<wgt id='2378'>0.82639E+02</wgt>
<wgt id='2379'>0.82585E+02</wgt>
<wgt id='2380'>0.82738E+02</wgt>
<wgt id='2381'>0.82736E+02</wgt>
<wgt id='2382'>0.82582E+02</wgt>
<wgt id='2383'>0.82686E+02</wgt>
<wgt id='2384'>0.82514E+02</wgt>
<wgt id='2385'>0.82654E+02</wgt>
<wgt id='2386'>0.82688E+02</wgt>
<wgt id='2387'>0.82620E+02</wgt>
<wgt id='2388'>0.82663E+02</wgt>
<wgt id='2389'>0.82579E+02</wgt>
<wgt id='2390'>0.82695E+02</wgt>
<wgt id='2391'>0.82615E+02</wgt>
<wgt id='2392'>0.82597E+02</wgt>
<wgt id='2393'>0.82673E+02</wgt>
<wgt id='2394'>0.82606E+02</wgt>
<wgt id='2395'>0.82643E+02</wgt>
<wgt id='2396'>0.82626E+02</wgt>
<wgt id='2397'>0.82680E+02</wgt>
<wgt id='2398'>0.82644E+02</wgt>
<wgt id='2399'>0.82626E+02</wgt>
<wgt id='2400'>0.82589E+02</wgt>
<wgt id='2401'>0.80408E+02</wgt>
<wgt id='2402'>0.85082E+02</wgt>
<wgt id='2500'>0.77987E+02</wgt>
<wgt id='2501'>0.78962E+02</wgt>
<wgt id='2600'>0.80487E+02</wgt>
<wgt id='2601'>0.80410E+02</wgt>
<wgt id='2602'>0.80526E+02</wgt>
<wgt id='2603'>0.80486E+02</wgt>
<wgt id='2604'>0.80611E+02</wgt>
<wgt id='2605'>0.80558E+02</wgt>
<wgt id='2606'>0.80131E+02</wgt>
<wgt id='2607'>0.80327E+02</wgt>
<wgt id='2608'>0.81023E+02</wgt>
<wgt id='2609'>0.80342E+02</wgt>
<wgt id='2610'>0.80390E+02</wgt>
<wgt id='2611'>0.80147E+02</wgt>
<wgt id='2612'>0.80505E+02</wgt>
<wgt id='2613'>0.80683E+02</wgt>
<wgt id='2614'>0.80352E+02</wgt>
<wgt id='2615'>0.80244E+02</wgt>
<wgt id='2616'>0.80170E+02</wgt>
<wgt id='2617'>0.80802E+02</wgt>
<wgt id='2618'>0.80526E+02</wgt>
<wgt id='2619'>0.80165E+02</wgt>
<wgt id='2620'>0.80451E+02</wgt>
<wgt id='2621'>0.80513E+02</wgt>
<wgt id='2622'>0.80422E+02</wgt>
<wgt id='2623'>0.80514E+02</wgt>
<wgt id='2624'>0.80429E+02</wgt>
<wgt id='2625'>0.80362E+02</wgt>
<wgt id='2626'>0.80669E+02</wgt>
<wgt id='2627'>0.80450E+02</wgt>
<wgt id='2628'>0.80361E+02</wgt>
<wgt id='2629'>0.80438E+02</wgt>
<wgt id='2630'>0.80323E+02</wgt>
<wgt id='2631'>0.80360E+02</wgt>
<wgt id='2632'>0.80438E+02</wgt>
<wgt id='2633'>0.80402E+02</wgt>
<wgt id='2634'>0.80471E+02</wgt>
<wgt id='2635'>0.80452E+02</wgt>
<wgt id='2636'>0.80435E+02</wgt>
<wgt id='2637'>0.80497E+02</wgt>
<wgt id='2638'>0.80442E+02</wgt>
<wgt id='2639'>0.80550E+02</wgt>
<wgt id='2640'>0.80530E+02</wgt>
<wgt id='2641'>0.80483E+02</wgt>
<wgt id='2642'>0.80519E+02</wgt>
<wgt id='2643'>0.80461E+02</wgt>
<wgt id='2644'>0.80515E+02</wgt>
<wgt id='2645'>0.80531E+02</wgt>
<wgt id='2646'>0.80464E+02</wgt>
<wgt id='2647'>0.80530E+02</wgt>
<wgt id='2648'>0.80448E+02</wgt>
<wgt id='2649'>0.80503E+02</wgt>
<wgt id='2650'>0.80496E+02</wgt>
<wgt id='2651'>0.79824E+02</wgt>
<wgt id='2652'>0.81070E+02</wgt>
<wgt id='2700'>0.78964E+02</wgt>
<wgt id='2701'>0.79824E+02</wgt>
<wgt id='2702'>0.80163E+02</wgt>
<wgt id='2703'>0.80935E+02</wgt>
<wgt id='2704'>0.81070E+02</wgt>
<wgt id='2705'>0.82078E+02</wgt>
<wgt id='2800'>0.85004E+02</wgt>
<wgt id='4000'>0.79822E+02</wgt>
<wgt id='4001'>0.80336E+02</wgt>
<wgt id='4002'>0.79813E+02</wgt>
<wgt id='4003'>0.80352E+02</wgt>
<wgt id='4004'>0.79516E+02</wgt>
<wgt id='4005'>0.79276E+02</wgt>
<wgt id='4006'>0.80175E+02</wgt>
<wgt id='4007'>0.77081E+02</wgt>
<wgt id='4008'>0.82344E+02</wgt>
<wgt id='4009'>0.78261E+02</wgt>
<wgt id='4010'>0.81095E+02</wgt>
<wgt id='4011'>0.79972E+02</wgt>
<wgt id='4012'>0.80230E+02</wgt>
<wgt id='4013'>0.79088E+02</wgt>
<wgt id='4014'>0.80291E+02</wgt>
<wgt id='4015'>0.80108E+02</wgt>
<wgt id='4016'>0.78980E+02</wgt>
<wgt id='4017'>0.80624E+02</wgt>
<wgt id='4018'>0.78761E+02</wgt>
<wgt id='4019'>0.79901E+02</wgt>
<wgt id='4020'>0.78744E+02</wgt>
<wgt id='4021'>0.79547E+02</wgt>
<wgt id='4022'>0.80266E+02</wgt>
<wgt id='4023'>0.80085E+02</wgt>
<wgt id='4024'>0.79118E+02</wgt>
<wgt id='4025'>0.79769E+02</wgt>
<wgt id='4026'>0.80128E+02</wgt>
<wgt id='4027'>0.78796E+02</wgt>
<wgt id='4028'>0.80449E+02</wgt>
<wgt id='4029'>0.79904E+02</wgt>
<wgt id='4030'>0.78909E+02</wgt>
<wgt id='4031'>0.79414E+02</wgt>
<wgt id='4032'>0.80225E+02</wgt>
<wgt id='4033'>0.78723E+02</wgt>
<wgt id='4034'>0.80605E+02</wgt>
<wgt id='4035'>0.79963E+02</wgt>
<wgt id='4036'>0.79522E+02</wgt>
<wgt id='4037'>0.80518E+02</wgt>
<wgt id='4038'>0.78629E+02</wgt>
<wgt id='4039'>0.80267E+02</wgt>
<wgt id='4040'>0.78929E+02</wgt>
<wgt id='4041'>0.80473E+02</wgt>
<wgt id='4042'>0.78840E+02</wgt>
<wgt id='4043'>0.79102E+02</wgt>
<wgt id='4044'>0.79919E+02</wgt>
<wgt id='4045'>0.79217E+02</wgt>
<wgt id='4046'>0.80134E+02</wgt>
<wgt id='4047'>0.80790E+02</wgt>
<wgt id='4048'>0.78725E+02</wgt>
<wgt id='4049'>0.79382E+02</wgt>
<wgt id='4050'>0.79832E+02</wgt>
<wgt id='4051'>0.80419E+02</wgt>
<wgt id='4052'>0.78427E+02</wgt>
<wgt id='4053'>0.80217E+02</wgt>
<wgt id='4054'>0.79211E+02</wgt>
<wgt id='4055'>0.79666E+02</wgt>
<wgt id='4056'>0.79187E+02</wgt>
<wgt id='4057'>0.79538E+02</wgt>
<wgt id='4058'>0.80027E+02</wgt>
<wgt id='4100'>0.80094E+02</wgt>
<wgt id='4101'>0.79954E+02</wgt>
<wgt id='4102'>0.79711E+02</wgt>
<wgt id='4103'>0.79623E+02</wgt>
<wgt id='4200'>0.79431E+02</wgt>
<wgt id='4201'>0.79412E+02</wgt>
<wgt id='4202'>0.79731E+02</wgt>
<wgt id='4203'>0.80588E+02</wgt>
<wgt id='4204'>0.78639E+02</wgt>
<wgt id='4205'>0.80134E+02</wgt>
<wgt id='4206'>0.78322E+02</wgt>
<wgt id='4207'>0.78813E+02</wgt>
<wgt id='4208'>0.78821E+02</wgt>
<wgt id='4209'>0.79230E+02</wgt>
<wgt id='4210'>0.79143E+02</wgt>
<wgt id='4211'>0.78885E+02</wgt>
<wgt id='4212'>0.79764E+02</wgt>
<wgt id='4213'>0.80792E+02</wgt>
<wgt id='4214'>0.77210E+02</wgt>
<wgt id='4215'>0.79397E+02</wgt>
<wgt id='4216'>0.79942E+02</wgt>
<wgt id='4217'>0.79958E+02</wgt>
<wgt id='4218'>0.79090E+02</wgt>
<wgt id='4219'>0.79517E+02</wgt>
<wgt id='4220'>0.79100E+02</wgt>
<wgt id='4221'>0.79398E+02</wgt>
<wgt id='4222'>0.79683E+02</wgt>
<wgt id='4223'>0.78294E+02</wgt>
<wgt id='4224'>0.80455E+02</wgt>
<wgt id='4225'>0.79380E+02</wgt>
<wgt id='4226'>0.79122E+02</wgt>
<wgt id='4227'>0.78659E+02</wgt>
<wgt id='4228'>0.79986E+02</wgt>
<wgt id='4229'>0.79141E+02</wgt>
<wgt id='4230'>0.79220E+02</wgt>
<wgt id='4231'>0.80922E+02</wgt>
<wgt id='4232'>0.77012E+02</wgt>
<wgt id='4233'>0.80054E+02</wgt>
<wgt id='4234'>0.78753E+02</wgt>
<wgt id='4235'>0.79030E+02</wgt>
<wgt id='4236'>0.79136E+02</wgt>
<wgt id='4237'>0.80367E+02</wgt>
<wgt id='4238'>0.78518E+02</wgt>
<wgt id='4239'>0.79426E+02</wgt>
<wgt id='4240'>0.78666E+02</wgt>
<wgt id='4241'>0.79813E+02</wgt>
<wgt id='4242'>0.78854E+02</wgt>
<wgt id='4243'>0.78201E+02</wgt>
<wgt id='4244'>0.81148E+02</wgt>
<wgt id='4245'>0.78411E+02</wgt>
<wgt id='4246'>0.80428E+02</wgt>
<wgt id='4247'>0.80004E+02</wgt>
<wgt id='4248'>0.78773E+02</wgt>
<wgt id='4249'>0.79298E+02</wgt>
<wgt id='4250'>0.79158E+02</wgt>
<wgt id='4251'>0.78913E+02</wgt>
<wgt id='4252'>0.79759E+02</wgt>
<wgt id='4253'>0.79491E+02</wgt>
<wgt id='4254'>0.79152E+02</wgt>
<wgt id='4255'>0.79229E+02</wgt>
<wgt id='4256'>0.78891E+02</wgt>
<wgt id='4257'>0.78874E+02</wgt>
<wgt id='4258'>0.79594E+02</wgt>
<wgt id='4300'>0.77640E+02</wgt>
<wgt id='4301'>0.79890E+02</wgt>
<wgt id='5000'>0.78353E+02</wgt>
<wgt id='5001'>0.78087E+02</wgt>
<wgt id='5002'>0.78695E+02</wgt>
<wgt id='5003'>0.78088E+02</wgt>
<wgt id='5004'>0.78595E+02</wgt>
<wgt id='5005'>0.78216E+02</wgt>
<wgt id='5006'>0.78579E+02</wgt>
<wgt id='5007'>0.78695E+02</wgt>
<wgt id='5008'>0.78075E+02</wgt>
<wgt id='5009'>0.78493E+02</wgt>
<wgt id='5010'>0.78209E+02</wgt>
<wgt id='5011'>0.77997E+02</wgt>
<wgt id='5012'>0.78697E+02</wgt>
<wgt id='5013'>0.78657E+02</wgt>
<wgt id='5014'>0.78137E+02</wgt>
<wgt id='5015'>0.78711E+02</wgt>
<wgt id='5016'>0.78711E+02</wgt>
<wgt id='5017'>0.78287E+02</wgt>
<wgt id='5018'>0.78397E+02</wgt>
<wgt id='5019'>0.77815E+02</wgt>
<wgt id='5020'>0.79100E+02</wgt>
<wgt id='5021'>0.78278E+02</wgt>
<wgt id='5022'>0.78461E+02</wgt>
<wgt id='5023'>0.78370E+02</wgt>
<wgt id='5024'>0.78314E+02</wgt>
<wgt id='5025'>0.78587E+02</wgt>
<wgt id='5026'>0.78085E+02</wgt>
<wgt id='5027'>0.78250E+02</wgt>
<wgt id='5028'>0.78638E+02</wgt>
<wgt id='5029'>0.77452E+02</wgt>
<wgt id='5030'>0.78871E+02</wgt>
<wgt id='5031'>0.78482E+02</wgt>
<wgt id='5032'>0.77972E+02</wgt>
<wgt id='5033'>0.78276E+02</wgt>
<wgt id='5034'>0.78436E+02</wgt>
<wgt id='5035'>0.78653E+02</wgt>
<wgt id='5036'>0.77944E+02</wgt>
<wgt id='5037'>0.78726E+02</wgt>
<wgt id='5038'>0.78145E+02</wgt>
<wgt id='5039'>0.78227E+02</wgt>
<wgt id='5040'>0.78683E+02</wgt>
<wgt id='5041'>0.78453E+02</wgt>
<wgt id='5042'>0.78253E+02</wgt>
<wgt id='5043'>0.77497E+02</wgt>
<wgt id='5044'>0.79113E+02</wgt>
<wgt id='5045'>0.78100E+02</wgt>
<wgt id='5046'>0.78875E+02</wgt>
<wgt id='5047'>0.78332E+02</wgt>
<wgt id='5048'>0.78573E+02</wgt>
<wgt id='5049'>0.78667E+02</wgt>
<wgt id='5050'>0.77914E+02</wgt>
<wgt id='5051'>0.78429E+02</wgt>
<wgt id='5052'>0.78288E+02</wgt>
<wgt id='5053'>0.77909E+02</wgt>
<wgt id='5054'>0.78644E+02</wgt>
<wgt id='5055'>0.78031E+02</wgt>
<wgt id='5056'>0.78576E+02</wgt>
<wgt id='5057'>0.78146E+02</wgt>
<wgt id='5058'>0.78456E+02</wgt>
<wgt id='5059'>0.78710E+02</wgt>
<wgt id='5060'>0.78179E+02</wgt>
<wgt id='5061'>0.78131E+02</wgt>
<wgt id='5062'>0.78100E+02</wgt>
<wgt id='5063'>0.78837E+02</wgt>
<wgt id='5064'>0.78542E+02</wgt>
<wgt id='5100'>0.78353E+02</wgt>
<wgt id='5101'>0.78420E+02</wgt>
<wgt id='6000'>0.78775E+02</wgt>
<wgt id='6001'>0.78626E+02</wgt>
<wgt id='6002'>0.77312E+02</wgt>
<wgt id='6003'>0.78630E+02</wgt>
<wgt id='6004'>0.78105E+02</wgt>
<wgt id='6005'>0.78858E+02</wgt>
<wgt id='6006'>0.78251E+02</wgt>
<wgt id='6007'>0.78861E+02</wgt>
<wgt id='6008'>0.78480E+02</wgt>
<wgt id='6009'>0.78936E+02</wgt>
<wgt id='6010'>0.78853E+02</wgt>
<wgt id='6011'>0.78924E+02</wgt>
<wgt id='6012'>0.78949E+02</wgt>
<wgt id='6013'>0.79062E+02</wgt>
<wgt id='6014'>0.78749E+02</wgt>
<wgt id='6015'>0.78767E+02</wgt>
<wgt id='6016'>0.79312E+02</wgt>
<wgt id='6017'>0.79048E+02</wgt>
<wgt id='6018'>0.79397E+02</wgt>
<wgt id='6019'>0.78774E+02</wgt>
<wgt id='6020'>0.78859E+02</wgt>
<wgt id='6021'>0.78210E+02</wgt>
<wgt id='6022'>0.78657E+02</wgt>
<wgt id='6023'>0.78738E+02</wgt>
<wgt id='6024'>0.78822E+02</wgt>
<wgt id='6025'>0.77962E+02</wgt>
<wgt id='6026'>0.78752E+02</wgt>
<wgt id='6027'>0.78832E+02</wgt>
<wgt id='6028'>0.78660E+02</wgt>
<wgt id='6029'>0.78861E+02</wgt>
<wgt id='6030'>0.78816E+02</wgt>
<wgt id='6031'>0.78782E+02</wgt>
<wgt id='6032'>0.78664E+02</wgt>
<wgt id='6033'>0.78718E+02</wgt>
<wgt id='6034'>0.78895E+02</wgt>
<wgt id='6035'>0.78891E+02</wgt>
<wgt id='6036'>0.78924E+02</wgt>
<wgt id='6037'>0.79187E+02</wgt>
<wgt id='6038'>0.78737E+02</wgt>
<wgt id='6039'>0.78963E+02</wgt>
<wgt id='6040'>0.78756E+02</wgt>
<wgt id='6041'>0.77869E+02</wgt>
<wgt id='6042'>0.80381E+02</wgt>
<wgt id='7000'>0.87476E+02</wgt>
<wgt id='7001'>0.87622E+02</wgt>
<wgt id='7002'>0.87366E+02</wgt>
<wgt id='7003'>0.87282E+02</wgt>
<wgt id='7004'>0.87706E+02</wgt>
<wgt id='7005'>0.87375E+02</wgt>
<wgt id='7006'>0.87612E+02</wgt>
<wgt id='7007'>0.86988E+02</wgt>
<wgt id='7008'>0.87990E+02</wgt>
<wgt id='7009'>0.87903E+02</wgt>
<wgt id='7010'>0.87084E+02</wgt>
<wgt id='7011'>0.87687E+02</wgt>
<wgt id='7012'>0.87301E+02</wgt>
<wgt id='7013'>0.87173E+02</wgt>
<wgt id='7014'>0.87811E+02</wgt>
<wgt id='7015'>0.87297E+02</wgt>
<wgt id='7016'>0.87611E+02</wgt>
<wgt id='7017'>0.87616E+02</wgt>
<wgt id='7018'>0.87369E+02</wgt>
<wgt id='7019'>0.87627E+02</wgt>
<wgt id='7020'>0.87368E+02</wgt>
<wgt id='7021'>0.86666E+02</wgt>
<wgt id='7022'>0.88328E+02</wgt>
<wgt id='7023'>0.87369E+02</wgt>
<wgt id='7024'>0.87630E+02</wgt>
<wgt id='7025'>0.86857E+02</wgt>
<wgt id='7026'>0.87964E+02</wgt>
<wgt id='7027'>0.86670E+02</wgt>
<wgt id='7028'>0.87955E+02</wgt>
<wgt id='8000'>0.81103E+02</wgt>
<wgt id='8001'>0.81091E+02</wgt>
<wgt id='8002'>0.81008E+02</wgt>
<wgt id='8003'>0.81300E+02</wgt>
<wgt id='8004'>0.81105E+02</wgt>
<wgt id='8005'>0.81229E+02</wgt>
<wgt id='8006'>0.80967E+02</wgt>
<wgt id='8007'>0.81300E+02</wgt>
<wgt id='8008'>0.80651E+02</wgt>
<wgt id='8009'>0.80946E+02</wgt>
<wgt id='8010'>0.81195E+02</wgt>
<wgt id='8011'>0.80879E+02</wgt>
<wgt id='8012'>0.81286E+02</wgt>
<wgt id='8013'>0.81177E+02</wgt>
<wgt id='8014'>0.80907E+02</wgt>
<wgt id='8015'>0.81197E+02</wgt>
<wgt id='8016'>0.81117E+02</wgt>
<wgt id='8017'>0.80950E+02</wgt>
<wgt id='8018'>0.80858E+02</wgt>
<wgt id='8019'>0.81065E+02</wgt>
<wgt id='8020'>0.80795E+02</wgt>
<wgt id='8021'>0.80932E+02</wgt>
<wgt id='8022'>0.81084E+02</wgt>
<wgt id='8023'>0.81024E+02</wgt>
<wgt id='8024'>0.81263E+02</wgt>
<wgt id='8025'>0.81114E+02</wgt>
<wgt id='8026'>0.80887E+02</wgt>
<wgt id='8027'>0.80886E+02</wgt>
<wgt id='8028'>0.81325E+02</wgt>
<wgt id='8029'>0.80650E+02</wgt>
<wgt id='3000'>0.81104E+02</wgt>
<wgt id='3001'>0.89566E+02</wgt>
<wgt id='3002'>0.83228E+02</wgt>
<wgt id='3003'>0.81988E+02</wgt>
<wgt id='3004'>0.80051E+02</wgt>
<wgt id='3005'>0.77778E+02</wgt>
<wgt id='3006'>0.82683E+02</wgt>
<wgt id='3007'>0.82563E+02</wgt>
<wgt id='3008'>0.79444E+02</wgt>
<wgt id='3009'>0.78697E+02</wgt>
<wgt id='3010'>0.76292E+02</wgt>
<wgt id='3011'>0.80284E+02</wgt>
<wgt id='3012'>0.78804E+02</wgt>
<wgt id='3013'>0.79223E+02</wgt>
<wgt id='3014'>0.82787E+02</wgt>
<wgt id='3015'>0.82187E+02</wgt>
<wgt id='3016'>0.80507E+02</wgt>
<wgt id='3017'>0.82048E+02</wgt>
<wgt id='3018'>0.79346E+02</wgt>
<wgt id='3019'>0.81923E+02</wgt>
<wgt id='3020'>0.76373E+02</wgt>
<wgt id='3021'>0.81839E+02</wgt>
<wgt id='3022'>0.83737E+02</wgt>
<wgt id='3023'>0.83126E+02</wgt>
<wgt id='3024'>0.79319E+02</wgt>
<wgt id='3025'>0.81771E+02</wgt>
<wgt id='3026'>0.84607E+02</wgt>
<wgt id='3027'>0.81198E+02</wgt>
<wgt id='3028'>0.80945E+02</wgt>
<wgt id='3029'>0.81247E+02</wgt>
<wgt id='3030'>0.82336E+02</wgt>
<wgt id='3031'>0.84359E+02</wgt>
<wgt id='3032'>0.80122E+02</wgt>
<wgt id='3033'>0.84235E+02</wgt>
<wgt id='3034'>0.77902E+02</wgt>
<wgt id='3035'>0.80786E+02</wgt>
<wgt id='3036'>0.83511E+02</wgt>
<wgt id='3037'>0.80305E+02</wgt>
<wgt id='3038'>0.79737E+02</wgt>
<wgt id='3039'>0.81297E+02</wgt>
<wgt id='3040'>0.83539E+02</wgt>
<wgt id='3041'>0.82191E+02</wgt>
<wgt id='3042'>0.81713E+02</wgt>
<wgt id='3043'>0.81543E+02</wgt>
<wgt id='3044'>0.82951E+02</wgt>
<wgt id='3045'>0.82409E+02</wgt>
<wgt id='3046'>0.82396E+02</wgt>
<wgt id='3047'>0.82234E+02</wgt>
<wgt id='3048'>0.79739E+02</wgt>
<wgt id='3049'>0.82731E+02</wgt>
<wgt id='3050'>0.78887E+02</wgt>
<wgt id='3051'>0.79772E+02</wgt>
<wgt id='3052'>0.80534E+02</wgt>
<wgt id='3053'>0.80584E+02</wgt>
<wgt id='3054'>0.82633E+02</wgt>
<wgt id='3055'>0.84887E+02</wgt>
<wgt id='3056'>0.81331E+02</wgt>
<wgt id='3057'>0.82986E+02</wgt>
<wgt id='3058'>0.82148E+02</wgt>
<wgt id='3059'>0.81359E+02</wgt>
<wgt id='3060'>0.84361E+02</wgt>
<wgt id='3061'>0.81847E+02</wgt>
<wgt id='3062'>0.79526E+02</wgt>
<wgt id='3063'>0.79672E+02</wgt>
<wgt id='3064'>0.79426E+02</wgt>
<wgt id='3065'>0.82907E+02</wgt>
<wgt id='3066'>0.84083E+02</wgt>
<wgt id='3067'>0.82460E+02</wgt>
<wgt id='3068'>0.82504E+02</wgt>
<wgt id='3069'>0.82427E+02</wgt>
<wgt id='3070'>0.79566E+02</wgt>
<wgt id='3071'>0.79663E+02</wgt>
<wgt id='3072'>0.79328E+02</wgt>
<wgt id='3073'>0.76329E+02</wgt>
<wgt id='3074'>0.77484E+02</wgt>
<wgt id='3075'>0.78239E+02</wgt>
<wgt id='3076'>0.85677E+02</wgt>
<wgt id='3077'>0.78479E+02</wgt>
<wgt id='3078'>0.82492E+02</wgt>
<wgt id='3079'>0.80213E+02</wgt>
<wgt id='3080'>0.80154E+02</wgt>
<wgt id='3081'>0.81040E+02</wgt>
<wgt id='3082'>0.80507E+02</wgt>
<wgt id='3083'>0.78728E+02</wgt>
<wgt id='3084'>0.79280E+02</wgt>
<wgt id='3085'>0.81098E+02</wgt>
<wgt id='3086'>0.83275E+02</wgt>
<wgt id='3087'>0.78794E+02</wgt>
<wgt id='3088'>0.80665E+02</wgt>
<wgt id='3089'>0.73089E+02</wgt>
<wgt id='3090'>0.80549E+02</wgt>
<wgt id='3091'>0.82780E+02</wgt>
<wgt id='3092'>0.77599E+02</wgt>
<wgt id='3093'>0.78761E+02</wgt>
<wgt id='3094'>0.80013E+02</wgt>
<wgt id='3095'>0.80721E+02</wgt>
<wgt id='3096'>0.83050E+02</wgt>
<wgt id='3097'>0.82328E+02</wgt>
<wgt id='3098'>0.82250E+02</wgt>
<wgt id='3099'>0.83185E+02</wgt>
<wgt id='3100'>0.81603E+02</wgt>
<wgt id='3200'>0.80494E+02</wgt>
<wgt id='3201'>0.81259E+02</wgt>
<wgt id='3202'>0.79323E+02</wgt>
<wgt id='3203'>0.82330E+02</wgt>
<wgt id='3204'>0.79787E+02</wgt>
<wgt id='3205'>0.80815E+02</wgt>
<wgt id='3206'>0.82079E+02</wgt>
<wgt id='3207'>0.79697E+02</wgt>
<wgt id='3208'>0.81487E+02</wgt>
<wgt id='3209'>0.79617E+02</wgt>
<wgt id='3210'>0.79649E+02</wgt>
<wgt id='3211'>0.80631E+02</wgt>
<wgt id='3212'>0.81987E+02</wgt>
<wgt id='3213'>0.79008E+02</wgt>
<wgt id='3214'>0.80075E+02</wgt>
<wgt id='3215'>0.80299E+02</wgt>
<wgt id='3216'>0.79171E+02</wgt>
<wgt id='3217'>0.81191E+02</wgt>
<wgt id='3218'>0.79549E+02</wgt>
<wgt id='3219'>0.80900E+02</wgt>
<wgt id='3220'>0.81008E+02</wgt>
<wgt id='3221'>0.80151E+02</wgt>
<wgt id='3222'>0.79768E+02</wgt>
<wgt id='3223'>0.80799E+02</wgt>
<wgt id='3224'>0.78937E+02</wgt>
<wgt id='3225'>0.81033E+02</wgt>
<wgt id='3226'>0.81417E+02</wgt>
<wgt id='3227'>0.79242E+02</wgt>
<wgt id='3228'>0.79919E+02</wgt>
<wgt id='3229'>0.80689E+02</wgt>
<wgt id='3230'>0.80337E+02</wgt>
<wgt id='3231'>0.80716E+02</wgt>
<wgt id='3232'>0.79459E+02</wgt>
<wgt id='3233'>0.81946E+02</wgt>
<wgt id='3234'>0.79097E+02</wgt>
<wgt id='3235'>0.80178E+02</wgt>
<wgt id='3236'>0.79114E+02</wgt>
<wgt id='3237'>0.81482E+02</wgt>
<wgt id='3238'>0.80909E+02</wgt>
<wgt id='3239'>0.79721E+02</wgt>
<wgt id='3240'>0.81525E+02</wgt>
<wgt id='3241'>0.81296E+02</wgt>
<wgt id='3242'>0.79532E+02</wgt>
<wgt id='3243'>0.80211E+02</wgt>
<wgt id='3244'>0.80171E+02</wgt>
<wgt id='3245'>0.78921E+02</wgt>
<wgt id='3246'>0.80694E+02</wgt>
<wgt id='3247'>0.80045E+02</wgt>
<wgt id='3248'>0.81338E+02</wgt>
<wgt id='3249'>0.79455E+02</wgt>
<wgt id='3250'>0.81309E+02</wgt>
<wgt id='3251'>0.79557E+02</wgt>
<wgt id='3252'>0.80605E+02</wgt>
<wgt id='3253'>0.80175E+02</wgt>
<wgt id='3254'>0.82311E+02</wgt>
<wgt id='3255'>0.80678E+02</wgt>
<wgt id='3256'>0.80183E+02</wgt>
<wgt id='3257'>0.80664E+02</wgt>
<wgt id='3258'>0.79614E+02</wgt>
<wgt id='3259'>0.78364E+02</wgt>
<wgt id='3260'>0.79757E+02</wgt>
<wgt id='3261'>0.79099E+02</wgt>
<wgt id='3262'>0.83284E+02</wgt>
<wgt id='3263'>0.80647E+02</wgt>
<wgt id='3264'>0.79695E+02</wgt>
<wgt id='3265'>0.78770E+02</wgt>
<wgt id='3266'>0.81482E+02</wgt>
<wgt id='3267'>0.81087E+02</wgt>
<wgt id='3268'>0.79908E+02</wgt>
<wgt id='3269'>0.79580E+02</wgt>
<wgt id='3270'>0.80756E+02</wgt>
<wgt id='3271'>0.79732E+02</wgt>
<wgt id='3272'>0.80625E+02</wgt>
<wgt id='3273'>0.79963E+02</wgt>
<wgt id='3274'>0.80146E+02</wgt>
<wgt id='3275'>0.80486E+02</wgt>
<wgt id='3276'>0.79680E+02</wgt>
<wgt id='3277'>0.81482E+02</wgt>
<wgt id='3278'>0.81370E+02</wgt>
<wgt id='3279'>0.78968E+02</wgt>
<wgt id='3280'>0.79479E+02</wgt>
<wgt id='3281'>0.81226E+02</wgt>
<wgt id='3282'>0.81816E+02</wgt>
<wgt id='3283'>0.82037E+02</wgt>
<wgt id='3284'>0.80104E+02</wgt>
<wgt id='3285'>0.80329E+02</wgt>
<wgt id='3286'>0.84263E+02</wgt>
<wgt id='3287'>0.82613E+02</wgt>
<wgt id='3288'>0.80261E+02</wgt>
<wgt id='3289'>0.80607E+02</wgt>
<wgt id='3290'>0.80504E+02</wgt>
<wgt id='3291'>0.79730E+02</wgt>
<wgt id='3292'>0.82502E+02</wgt>
<wgt id='3293'>0.80986E+02</wgt>
<wgt id='3294'>0.80018E+02</wgt>
<wgt id='3295'>0.81287E+02</wgt>
<wgt id='3296'>0.82570E+02</wgt>
<wgt id='3297'>0.79692E+02</wgt>
<wgt id='3298'>0.80869E+02</wgt>
<wgt id='3299'>0.79846E+02</wgt>
<wgt id='3300'>0.80540E+02</wgt>
<wgt id='3301'>0.79824E+02</wgt>
<wgt id='3302'>0.81070E+02</wgt>
<wgt id='3400'>0.80024E+02</wgt>
<wgt id='3401'>0.79796E+02</wgt>
<wgt id='3402'>0.80558E+02</wgt>
<wgt id='3403'>0.79594E+02</wgt>
<wgt id='3404'>0.78240E+02</wgt>
<wgt id='3405'>0.79037E+02</wgt>
<wgt id='3406'>0.81631E+02</wgt>
<wgt id='3407'>0.81433E+02</wgt>
<wgt id='3408'>0.78230E+02</wgt>
<wgt id='3409'>0.80496E+02</wgt>
<wgt id='3410'>0.79780E+02</wgt>
<wgt id='3411'>0.79374E+02</wgt>
<wgt id='3412'>0.79766E+02</wgt>
<wgt id='3413'>0.80742E+02</wgt>
<wgt id='3414'>0.81010E+02</wgt>
<wgt id='3415'>0.80050E+02</wgt>
<wgt id='3416'>0.81657E+02</wgt>
<wgt id='3417'>0.81184E+02</wgt>
<wgt id='3418'>0.81088E+02</wgt>
<wgt id='3419'>0.80113E+02</wgt>
<wgt id='3420'>0.79819E+02</wgt>
<wgt id='3421'>0.81729E+02</wgt>
<wgt id='3422'>0.78915E+02</wgt>
<wgt id='3423'>0.79635E+02</wgt>
<wgt id='3424'>0.80099E+02</wgt>
<wgt id='3425'>0.80440E+02</wgt>
<wgt id='3426'>0.79586E+02</wgt>
<wgt id='3427'>0.79664E+02</wgt>
<wgt id='3428'>0.81237E+02</wgt>
<wgt id='3429'>0.78980E+02</wgt>
<wgt id='3430'>0.80625E+02</wgt>
<wgt id='3431'>0.78992E+02</wgt>
<wgt id='3432'>0.79587E+02</wgt>
<wgt id='3433'>0.80077E+02</wgt>
<wgt id='3434'>0.79522E+02</wgt>
<wgt id='3435'>0.79286E+02</wgt>
<wgt id='3436'>0.81825E+02</wgt>
<wgt id='3437'>0.79493E+02</wgt>
<wgt id='3438'>0.79968E+02</wgt>
<wgt id='3439'>0.79007E+02</wgt>
<wgt id='3440'>0.79221E+02</wgt>
<wgt id='3441'>0.80494E+02</wgt>
<wgt id='3442'>0.79656E+02</wgt>
<wgt id='3443'>0.78377E+02</wgt>
<wgt id='3444'>0.80208E+02</wgt>
<wgt id='3445'>0.78904E+02</wgt>
<wgt id='3446'>0.79418E+02</wgt>
<wgt id='3447'>0.80740E+02</wgt>
<wgt id='3448'>0.82495E+02</wgt>
<wgt id='3449'>0.79935E+02</wgt>
<wgt id='3450'>0.80419E+02</wgt>
<wgt id='3451'>0.79436E+02</wgt>
<wgt id='3452'>0.79701E+02</wgt>
<wgt id='3453'>0.80979E+02</wgt>
<wgt id='3454'>0.79648E+02</wgt>
<wgt id='3455'>0.79787E+02</wgt>
<wgt id='3456'>0.78444E+02</wgt>
<wgt id='3457'>0.79813E+02</wgt>
<wgt id='3458'>0.78965E+02</wgt>
<wgt id='3459'>0.80089E+02</wgt>
<wgt id='3460'>0.80530E+02</wgt>
<wgt id='3461'>0.80288E+02</wgt>
<wgt id='3462'>0.79351E+02</wgt>
<wgt id='3463'>0.79790E+02</wgt>
<wgt id='3464'>0.78571E+02</wgt>
<wgt id='3465'>0.79010E+02</wgt>
<wgt id='3466'>0.79668E+02</wgt>
<wgt id='3467'>0.80214E+02</wgt>
<wgt id='3468'>0.80144E+02</wgt>
<wgt id='3469'>0.80607E+02</wgt>
<wgt id='3470'>0.79383E+02</wgt>
<wgt id='3471'>0.79035E+02</wgt>
<wgt id='3472'>0.79708E+02</wgt>
<wgt id='3473'>0.79207E+02</wgt>
<wgt id='3474'>0.80400E+02</wgt>
<wgt id='3475'>0.79928E+02</wgt>
<wgt id='3476'>0.80888E+02</wgt>
<wgt id='3477'>0.80526E+02</wgt>
<wgt id='3478'>0.79933E+02</wgt>
<wgt id='3479'>0.80872E+02</wgt>
<wgt id='3480'>0.80248E+02</wgt>
<wgt id='3481'>0.80833E+02</wgt>
<wgt id='3482'>0.80284E+02</wgt>
<wgt id='3483'>0.81659E+02</wgt>
<wgt id='3484'>0.80091E+02</wgt>
<wgt id='3485'>0.79790E+02</wgt>
<wgt id='3486'>0.79303E+02</wgt>
<wgt id='3487'>0.80307E+02</wgt>
<wgt id='3488'>0.79206E+02</wgt>
<wgt id='3489'>0.79789E+02</wgt>
<wgt id='3490'>0.77788E+02</wgt>
<wgt id='3491'>0.82342E+02</wgt>
<wgt id='3492'>0.80341E+02</wgt>
<wgt id='3493'>0.78805E+02</wgt>
<wgt id='3494'>0.78997E+02</wgt>
<wgt id='3495'>0.80989E+02</wgt>
<wgt id='3496'>0.79739E+02</wgt>
<wgt id='3497'>0.81112E+02</wgt>
<wgt id='3498'>0.80621E+02</wgt>
<wgt id='3499'>0.81887E+02</wgt>
<wgt id='3500'>0.81061E+02</wgt>
</rwgt>
</event>
<event>
     13 322200  8.11039E+01  3.59879E+02 -1.00000E+00  1.01992E-01
      -1    -1     0     0     0   512  0.000000000E+00  0.000000000E+00  1.014011796E+03  1.014011796E+03  0.000000000E+00  0.00000E+00  9.000E+00
      21    -1     0     0   512   513  0.000000000E+00  0.000000000E+00 -1.987046679E+02  1.987046679E+02  0.000000000E+00  0.00000E+00  9.000E+00
       6     2     1     2   502     0  3.070357894E+02 -4.094331348E+01  3.576476958E+02  5.036751741E+02  1.727121184E+02  0.00000E+00  9.000E+00
      -6     2     1     2     0   513  3.657450362E+01 -6.603576381E+01  1.464417319E+02  2.332587161E+02  1.651242906E+02  0.00000E+00  9.000E+00
      -1     1     1     2     0   502 -3.436102930E+02  1.069790773E+02  3.112177006E+02  4.757825739E+02  2.100000000E-01  0.00000E+00  9.000E+00
      24     2     3     3     0     0  2.333233312E+02 -8.685588900E+01  3.065522678E+02  4.027899054E+02  7.925713001E+01  0.00000E+00  9.000E+00
       5     1     3     3   502     0  7.371245820E+01  4.591257552E+01  5.109542798E+01  1.008852687E+02  5.060000000E+00  0.00000E+00 -1.000E+00
     -24     2     4     4     0     0 -1.868807436E+01  7.673174348E+00  1.015723738E+02  1.306632825E+02  7.967323607E+01  0.00000E+00  9.000E+00
      -5     1     4     4     0   513  5.526257798E+01 -7.370893816E+01  4.486935806E+01  1.025954335E+02  5.060000000E+00  0.00000E+00  1.000E+00
     -13     1     6     6     0     0  2.468548778E+01  1.400472432E+01  2.262141732E+01  3.629387419E+01  1.057000000E-01  0.00000E+00  1.000E+00
      14     1     6     6     0     0  2.086378434E+02 -1.008606133E+02  2.839308505E+02  3.664960312E+02  0.000000000E+00  0.00000E+00 -1.000E+00
      15     1     8     8     0     0  1.828031291E+01  1.436972061E+01  8.748379347E+01  9.053855841E+01  1.777000000E+00  0.00000E+00 -1.000E+00
     -16     1     8     8     0     0 -3.696838727E+01 -6.696546259E+00  1.408858037E+01  4.012472412E+01  0.000000000E+00  0.00000E+00  1.000E+00
#rwgt            1           6   17.349807382831571               10       37086           0
<rwgt>
<wgt id='1001'>0.81104E+02</wgt>
<wgt id='1002'>0.84397E+02</wgt>
<wgt id='1003'>0.78422E+02</wgt>
<wgt id='1004'>0.71000E+02</wgt>
<wgt id='1005'>0.73560E+02</wgt>
<wgt id='1006'>0.68858E+02</wgt>
<wgt id='1007'>0.93287E+02</wgt>
<wgt id='1008'>0.97636E+02</wgt>
<wgt id='1009'>0.89844E+02</wgt>
<wgt id='2000'>0.81104E+02</wgt>
<wgt id='2001'>0.81039E+02</wgt>
<wgt id='2002'>0.81068E+02</wgt>
<wgt id='2003'>0.81055E+02</wgt>
<wgt id='2004'>0.81552E+02</wgt>
<wgt id='2005'>0.80431E+02</wgt>
<wgt id='2006'>0.81014E+02</wgt>
<wgt id='2007'>0.80985E+02</wgt>
<wgt id='2008'>0.80416E+02</wgt>
<wgt id='2009'>0.82054E+02</wgt>
<wgt id='2010'>0.81001E+02</wgt>
<wgt id='2011'>0.81388E+02</wgt>
<wgt id='2012'>0.81143E+02</wgt>
<wgt id='2013'>0.81585E+02</wgt>
<wgt id='2014'>0.80824E+02</wgt>
<wgt id='2015'>0.82323E+02</wgt>
<wgt id='2016'>0.80935E+02</wgt>
<wgt id='2017'>0.80868E+02</wgt>
<wgt id='2018'>0.80187E+02</wgt>
<wgt id='2019'>0.81265E+02</wgt>
<wgt id='2020'>0.81158E+02</wgt>
<wgt id='2021'>0.80615E+02</wgt>
<wgt id='2022'>0.81527E+02</wgt>
<wgt id='2023'>0.80936E+02</wgt>
<wgt id='2024'>0.80224E+02</wgt>
<wgt id='2025'>0.80705E+02</wgt>
<wgt id='2026'>0.81038E+02</wgt>
<wgt id='2027'>0.82403E+02</wgt>
<wgt id='2028'>0.80803E+02</wgt>
<wgt id='2029'>0.81982E+02</wgt>
<wgt id='2030'>0.81510E+02</wgt>
<wgt id='2031'>0.81694E+02</wgt>
<wgt id='2032'>0.80442E+02</wgt>
<wgt id='2033'>0.81431E+02</wgt>
<wgt id='2034'>0.81388E+02</wgt>
<wgt id='2035'>0.81249E+02</wgt>
<wgt id='2036'>0.81121E+02</wgt>
<wgt id='2037'>0.80876E+02</wgt>
<wgt id='2038'>0.81371E+02</wgt>
<wgt id='2039'>0.81162E+02</wgt>
<wgt id='2040'>0.80837E+02</wgt>
<wgt id='2041'>0.80784E+02</wgt>
<wgt id='2042'>0.80777E+02</wgt>
<wgt id='2043'>0.80823E+02</wgt>
<wgt id='2044'>0.81013E+02</wgt>
<wgt id='2045'>0.81498E+02</wgt>
<wgt id='2046'>0.81550E+02</wgt>
<wgt id='2047'>0.81026E+02</wgt>
<wgt id='2048'>0.81382E+02</wgt>
<wgt id='2049'>0.80692E+02</wgt>
<wgt id='2050'>0.81192E+02</wgt>
<wgt id='2051'>0.81410E+02</wgt>
<wgt id='2052'>0.80811E+02</wgt>
<wgt id='2053'>0.81076E+02</wgt>
<wgt id='2054'>0.81113E+02</wgt>
<wgt id='2055'>0.81462E+02</wgt>
<wgt id='2056'>0.81277E+02</wgt>
<wgt id='2057'>0.80918E+02</wgt>
<wgt id='2058'>0.81092E+02</wgt>
<wgt id='2059'>0.81039E+02</wgt>
<wgt id='2060'>0.81364E+02</wgt>
<wgt id='2061'>0.81388E+02</wgt>
<wgt id='2062'>0.81122E+02</wgt>
<wgt id='2063'>0.81209E+02</wgt>
<wgt id='2064'>0.81194E+02</wgt>
<wgt id='2065'>0.81004E+02</wgt>
<wgt id='2066'>0.81754E+02</wgt>
<wgt id='2067'>0.81295E+02</wgt>
<wgt id='2068'>0.80907E+02</wgt>
<wgt id='2069'>0.80885E+02</wgt>
<wgt id='2070'>0.81132E+02</wgt>
<wgt id='2071'>0.81117E+02</wgt>
<wgt id='2072'>0.80933E+02</wgt>
<wgt id='2073'>0.81216E+02</wgt>
<wgt id='2074'>0.81063E+02</wgt>
<wgt id='2075'>0.80932E+02</wgt>
<wgt id='2076'>0.81184E+02</wgt>
<wgt id='2077'>0.81220E+02</wgt>
<wgt id='2078'>0.81162E+02</wgt>
<wgt id='2079'>0.80905E+02</wgt>
<wgt id='2080'>0.81044E+02</wgt>
<wgt id='2081'>0.81186E+02</wgt>
<wgt id='2082'>0.81325E+02</wgt>
<wgt id='2083'>0.81129E+02</wgt>
<wgt id='2084'>0.81058E+02</wgt>
<wgt id='2085'>0.80970E+02</wgt>
<wgt id='2086'>0.81271E+02</wgt>
<wgt id='2087'>0.81345E+02</wgt>
<wgt id='2088'>0.81139E+02</wgt>
<wgt id='2089'>0.81017E+02</wgt>
<wgt id='2090'>0.81052E+02</wgt>
<wgt id='2091'>0.81205E+02</wgt>
<wgt id='2092'>0.81006E+02</wgt>
<wgt id='2093'>0.80962E+02</wgt>
<wgt id='2094'>0.81021E+02</wgt>
<wgt id='2095'>0.81115E+02</wgt>
<wgt id='2096'>0.80961E+02</wgt>
<wgt id='2097'>0.81024E+02</wgt>
<wgt id='2098'>0.81054E+02</wgt>
<wgt id='2099'>0.81090E+02</wgt>
<wgt id='2100'>0.81104E+02</wgt>
<wgt id='2101'>0.78621E+02</wgt>
<wgt id='2102'>0.84237E+02</wgt>
<wgt id='2200'>0.81463E+02</wgt>
<wgt id='2201'>0.69096E+02</wgt>
<wgt id='2202'>0.71411E+02</wgt>
<wgt id='2203'>0.73377E+02</wgt>
<wgt id='2204'>0.76198E+02</wgt>
<wgt id='2205'>0.79558E+02</wgt>
<wgt id='2206'>0.82942E+02</wgt>
<wgt id='2207'>0.86950E+02</wgt>
<wgt id='2208'>0.89849E+02</wgt>
<wgt id='2300'>0.84304E+02</wgt>
<wgt id='2301'>0.84283E+02</wgt>
<wgt id='2302'>0.84265E+02</wgt>
<wgt id='2303'>0.84272E+02</wgt>
<wgt id='2304'>0.84842E+02</wgt>
<wgt id='2305'>0.84160E+02</wgt>
<wgt id='2306'>0.84131E+02</wgt>
<wgt id='2307'>0.84189E+02</wgt>
<wgt id='2308'>0.84017E+02</wgt>
<wgt id='2309'>0.84439E+02</wgt>
<wgt id='2310'>0.83567E+02</wgt>
<wgt id='2311'>0.84316E+02</wgt>
<wgt id='2312'>0.84397E+02</wgt>
<wgt id='2313'>0.84481E+02</wgt>
<wgt id='2314'>0.84792E+02</wgt>
<wgt id='2315'>0.83673E+02</wgt>
<wgt id='2316'>0.84669E+02</wgt>
<wgt id='2317'>0.83928E+02</wgt>
<wgt id='2318'>0.84414E+02</wgt>
<wgt id='2319'>0.84198E+02</wgt>
<wgt id='2320'>0.84019E+02</wgt>
<wgt id='2321'>0.85108E+02</wgt>
<wgt id='2322'>0.84326E+02</wgt>
<wgt id='2323'>0.84483E+02</wgt>
<wgt id='2324'>0.84892E+02</wgt>
<wgt id='2325'>0.83923E+02</wgt>
<wgt id='2326'>0.84145E+02</wgt>
<wgt id='2327'>0.84402E+02</wgt>
<wgt id='2328'>0.84276E+02</wgt>
<wgt id='2329'>0.84975E+02</wgt>
<wgt id='2330'>0.85085E+02</wgt>
<wgt id='2331'>0.84288E+02</wgt>
<wgt id='2332'>0.83892E+02</wgt>
<wgt id='2333'>0.84245E+02</wgt>
<wgt id='2334'>0.84152E+02</wgt>
<wgt id='2335'>0.83718E+02</wgt>
<wgt id='2336'>0.83505E+02</wgt>
<wgt id='2337'>0.84102E+02</wgt>
<wgt id='2338'>0.83638E+02</wgt>
<wgt id='2339'>0.84191E+02</wgt>
<wgt id='2340'>0.84094E+02</wgt>
<wgt id='2341'>0.83708E+02</wgt>
<wgt id='2342'>0.84123E+02</wgt>
<wgt id='2343'>0.84946E+02</wgt>
<wgt id='2344'>0.83876E+02</wgt>
<wgt id='2345'>0.84119E+02</wgt>
<wgt id='2346'>0.84073E+02</wgt>
<wgt id='2347'>0.84593E+02</wgt>
<wgt id='2348'>0.84477E+02</wgt>
<wgt id='2349'>0.84297E+02</wgt>
<wgt id='2350'>0.84768E+02</wgt>
<wgt id='2351'>0.84600E+02</wgt>
<wgt id='2352'>0.84179E+02</wgt>
<wgt id='2353'>0.84098E+02</wgt>
<wgt id='2354'>0.84324E+02</wgt>
<wgt id='2355'>0.84397E+02</wgt>
<wgt id='2356'>0.84246E+02</wgt>
<wgt id='2357'>0.83937E+02</wgt>
<wgt id='2358'>0.83683E+02</wgt>
<wgt id='2359'>0.84331E+02</wgt>
<wgt id='2360'>0.84412E+02</wgt>
<wgt id='2361'>0.84577E+02</wgt>
<wgt id='2362'>0.84647E+02</wgt>
<wgt id='2363'>0.84612E+02</wgt>
<wgt id='2364'>0.84399E+02</wgt>
<wgt id='2365'>0.84355E+02</wgt>
<wgt id='2366'>0.84406E+02</wgt>
<wgt id='2367'>0.84529E+02</wgt>
<wgt id='2368'>0.84397E+02</wgt>
<wgt id='2369'>0.84213E+02</wgt>
<wgt id='2370'>0.84547E+02</wgt>
<wgt id='2371'>0.84259E+02</wgt>
<wgt id='2372'>0.84629E+02</wgt>
<wgt id='2373'>0.84201E+02</wgt>
<wgt id='2374'>0.84160E+02</wgt>
<wgt id='2375'>0.84167E+02</wgt>
<wgt id='2376'>0.84159E+02</wgt>
<wgt id='2377'>0.84339E+02</wgt>
<wgt id='2378'>0.84394E+02</wgt>
<wgt id='2379'>0.84205E+02</wgt>
<wgt id='2380'>0.84138E+02</wgt>
<wgt id='2381'>0.84308E+02</wgt>
<wgt id='2382'>0.84464E+02</wgt>
<wgt id='2383'>0.84258E+02</wgt>
<wgt id='2384'>0.84270E+02</wgt>
<wgt id='2385'>0.84368E+02</wgt>
<wgt id='2386'>0.84199E+02</wgt>
<wgt id='2387'>0.84294E+02</wgt>
<wgt id='2388'>0.84351E+02</wgt>
<wgt id='2389'>0.84714E+02</wgt>
<wgt id='2390'>0.84323E+02</wgt>
<wgt id='2391'>0.84303E+02</wgt>
<wgt id='2392'>0.84312E+02</wgt>
<wgt id='2393'>0.84136E+02</wgt>
<wgt id='2394'>0.84364E+02</wgt>
<wgt id='2395'>0.84379E+02</wgt>
<wgt id='2396'>0.84269E+02</wgt>
<wgt id='2397'>0.84193E+02</wgt>
<wgt id='2398'>0.84364E+02</wgt>
<wgt id='2399'>0.84462E+02</wgt>
<wgt id='2400'>0.84434E+02</wgt>
<wgt id='2401'>0.81996E+02</wgt>
<wgt id='2402'>0.87398E+02</wgt>
<wgt id='2500'>0.76969E+02</wgt>
<wgt id='2501'>0.79271E+02</wgt>
<wgt id='2600'>0.82282E+02</wgt>
<wgt id='2601'>0.82134E+02</wgt>
<wgt id='2602'>0.81884E+02</wgt>
<wgt id='2603'>0.82369E+02</wgt>
<wgt id='2604'>0.82180E+02</wgt>
<wgt id='2605'>0.81196E+02</wgt>
<wgt id='2606'>0.82863E+02</wgt>
<wgt id='2607'>0.82044E+02</wgt>
<wgt id='2608'>0.81590E+02</wgt>
<wgt id='2609'>0.82259E+02</wgt>
<wgt id='2610'>0.82064E+02</wgt>
<wgt id='2611'>0.81603E+02</wgt>
<wgt id='2612'>0.81723E+02</wgt>
<wgt id='2613'>0.82693E+02</wgt>
<wgt id='2614'>0.81960E+02</wgt>
<wgt id='2615'>0.82473E+02</wgt>
<wgt id='2616'>0.83257E+02</wgt>
<wgt id='2617'>0.82814E+02</wgt>
<wgt id='2618'>0.81854E+02</wgt>
<wgt id='2619'>0.82944E+02</wgt>
<wgt id='2620'>0.81960E+02</wgt>
<wgt id='2621'>0.82162E+02</wgt>
<wgt id='2622'>0.81856E+02</wgt>
<wgt id='2623'>0.82584E+02</wgt>
<wgt id='2624'>0.82747E+02</wgt>
<wgt id='2625'>0.82394E+02</wgt>
<wgt id='2626'>0.82139E+02</wgt>
<wgt id='2627'>0.81876E+02</wgt>
<wgt id='2628'>0.82577E+02</wgt>
<wgt id='2629'>0.82284E+02</wgt>
<wgt id='2630'>0.82558E+02</wgt>
<wgt id='2631'>0.82291E+02</wgt>
<wgt id='2632'>0.82310E+02</wgt>
<wgt id='2633'>0.82192E+02</wgt>
<wgt id='2634'>0.82315E+02</wgt>
<wgt id='2635'>0.82169E+02</wgt>
<wgt id='2636'>0.82251E+02</wgt>
<wgt id='2637'>0.82428E+02</wgt>
<wgt id='2638'>0.82177E+02</wgt>
<wgt id='2639'>0.82129E+02</wgt>
<wgt id='2640'>0.82150E+02</wgt>
<wgt id='2641'>0.82357E+02</wgt>
<wgt id='2642'>0.82261E+02</wgt>
<wgt id='2643'>0.82302E+02</wgt>
<wgt id='2644'>0.82277E+02</wgt>
<wgt id='2645'>0.82161E+02</wgt>
<wgt id='2646'>0.82318E+02</wgt>
<wgt id='2647'>0.82263E+02</wgt>
<wgt id='2648'>0.82183E+02</wgt>
<wgt id='2649'>0.82288E+02</wgt>
<wgt id='2650'>0.82274E+02</wgt>
<wgt id='2651'>0.81717E+02</wgt>
<wgt id='2652'>0.83124E+02</wgt>
<wgt id='2700'>0.80968E+02</wgt>
<wgt id='2701'>0.81717E+02</wgt>
<wgt id='2702'>0.81675E+02</wgt>
<wgt id='2703'>0.82760E+02</wgt>
<wgt id='2704'>0.83124E+02</wgt>
<wgt id='2705'>0.83976E+02</wgt>
<wgt id='2800'>0.84981E+02</wgt>
<wgt id='4000'>0.76625E+02</wgt>
<wgt id='4001'>0.75412E+02</wgt>
<wgt id='4002'>0.75169E+02</wgt>
<wgt id='4003'>0.75464E+02</wgt>
<wgt id='4004'>0.78446E+02</wgt>
<wgt id='4005'>0.74210E+02</wgt>
<wgt id='4006'>0.78840E+02</wgt>
<wgt id='4007'>0.75550E+02</wgt>
<wgt id='4008'>0.77242E+02</wgt>
<wgt id='4009'>0.73342E+02</wgt>
<wgt id='4010'>0.79298E+02</wgt>
<wgt id='4011'>0.76212E+02</wgt>
<wgt id='4012'>0.78250E+02</wgt>
<wgt id='4013'>0.76756E+02</wgt>
<wgt id='4014'>0.75528E+02</wgt>
<wgt id='4015'>0.77532E+02</wgt>
<wgt id='4016'>0.75076E+02</wgt>
<wgt id='4017'>0.78587E+02</wgt>
<wgt id='4018'>0.74310E+02</wgt>
<wgt id='4019'>0.77795E+02</wgt>
<wgt id='4020'>0.73188E+02</wgt>
<wgt id='4021'>0.77337E+02</wgt>
<wgt id='4022'>0.75447E+02</wgt>
<wgt id='4023'>0.77243E+02</wgt>
<wgt id='4024'>0.75350E+02</wgt>
<wgt id='4025'>0.75667E+02</wgt>
<wgt id='4026'>0.79206E+02</wgt>
<wgt id='4027'>0.74559E+02</wgt>
<wgt id='4028'>0.77969E+02</wgt>
<wgt id='4029'>0.75010E+02</wgt>
<wgt id='4030'>0.76204E+02</wgt>
<wgt id='4031'>0.75429E+02</wgt>
<wgt id='4032'>0.78681E+02</wgt>
<wgt id='4033'>0.75215E+02</wgt>
<wgt id='4034'>0.77155E+02</wgt>
<wgt id='4035'>0.75360E+02</wgt>
<wgt id='4036'>0.77111E+02</wgt>
<wgt id='4037'>0.77357E+02</wgt>
<wgt id='4038'>0.75182E+02</wgt>
<wgt id='4039'>0.74875E+02</wgt>
<wgt id='4040'>0.77653E+02</wgt>
<wgt id='4041'>0.77104E+02</wgt>
<wgt id='4042'>0.75446E+02</wgt>
<wgt id='4043'>0.76257E+02</wgt>
<wgt id='4044'>0.75943E+02</wgt>
<wgt id='4045'>0.76842E+02</wgt>
<wgt id='4046'>0.76457E+02</wgt>
<wgt id='4047'>0.76213E+02</wgt>
<wgt id='4048'>0.76153E+02</wgt>
<wgt id='4049'>0.75940E+02</wgt>
<wgt id='4050'>0.76481E+02</wgt>
<wgt id='4051'>0.76885E+02</wgt>
<wgt id='4052'>0.74878E+02</wgt>
<wgt id='4053'>0.76192E+02</wgt>
<wgt id='4054'>0.76728E+02</wgt>
<wgt id='4055'>0.75361E+02</wgt>
<wgt id='4056'>0.75993E+02</wgt>
<wgt id='4057'>0.76245E+02</wgt>
<wgt id='4058'>0.76889E+02</wgt>
<wgt id='4100'>0.76978E+02</wgt>
<wgt id='4101'>0.76795E+02</wgt>
<wgt id='4102'>0.76476E+02</wgt>
<wgt id='4103'>0.76351E+02</wgt>
<wgt id='4200'>0.77056E+02</wgt>
<wgt id='4201'>0.75394E+02</wgt>
<wgt id='4202'>0.76426E+02</wgt>
<wgt id='4203'>0.78046E+02</wgt>
<wgt id='4204'>0.76211E+02</wgt>
<wgt id='4205'>0.76991E+02</wgt>
<wgt id='4206'>0.76282E+02</wgt>
<wgt id='4207'>0.75890E+02</wgt>
<wgt id='4208'>0.75675E+02</wgt>
<wgt id='4209'>0.77472E+02</wgt>
<wgt id='4210'>0.76077E+02</wgt>
<wgt id='4211'>0.77992E+02</wgt>
<wgt id='4212'>0.76126E+02</wgt>
<wgt id='4213'>0.76333E+02</wgt>
<wgt id='4214'>0.77179E+02</wgt>
<wgt id='4215'>0.77946E+02</wgt>
<wgt id='4216'>0.75845E+02</wgt>
<wgt id='4217'>0.73820E+02</wgt>
<wgt id='4218'>0.79034E+02</wgt>
<wgt id='4219'>0.76915E+02</wgt>
<wgt id='4220'>0.76727E+02</wgt>
<wgt id='4221'>0.76837E+02</wgt>
<wgt id='4222'>0.77444E+02</wgt>
<wgt id='4223'>0.73206E+02</wgt>
<wgt id='4224'>0.80318E+02</wgt>
<wgt id='4225'>0.77201E+02</wgt>
<wgt id='4226'>0.76316E+02</wgt>
<wgt id='4227'>0.76455E+02</wgt>
<wgt id='4228'>0.77406E+02</wgt>
<wgt id='4229'>0.76574E+02</wgt>
<wgt id='4230'>0.76371E+02</wgt>
<wgt id='4231'>0.77642E+02</wgt>
<wgt id='4232'>0.75441E+02</wgt>
<wgt id='4233'>0.77502E+02</wgt>
<wgt id='4234'>0.76309E+02</wgt>
<wgt id='4235'>0.77332E+02</wgt>
<wgt id='4236'>0.75761E+02</wgt>
<wgt id='4237'>0.78641E+02</wgt>
<wgt id='4238'>0.75446E+02</wgt>
<wgt id='4239'>0.75444E+02</wgt>
<wgt id='4240'>0.77164E+02</wgt>
<wgt id='4241'>0.77037E+02</wgt>
<wgt id='4242'>0.76299E+02</wgt>
<wgt id='4243'>0.74221E+02</wgt>
<wgt id='4244'>0.81020E+02</wgt>
<wgt id='4245'>0.76108E+02</wgt>
<wgt id='4246'>0.77751E+02</wgt>
<wgt id='4247'>0.78420E+02</wgt>
<wgt id='4248'>0.75736E+02</wgt>
<wgt id='4249'>0.75704E+02</wgt>
<wgt id='4250'>0.78028E+02</wgt>
<wgt id='4251'>0.76843E+02</wgt>
<wgt id='4252'>0.77112E+02</wgt>
<wgt id='4253'>0.77750E+02</wgt>
<wgt id='4254'>0.75965E+02</wgt>
<wgt id='4255'>0.76010E+02</wgt>
<wgt id='4256'>0.76749E+02</wgt>
<wgt id='4257'>0.76322E+02</wgt>
<wgt id='4258'>0.77271E+02</wgt>
<wgt id='4300'>0.74438E+02</wgt>
<wgt id='4301'>0.77297E+02</wgt>
<wgt id='5000'>0.77654E+02</wgt>
<wgt id='5001'>0.77147E+02</wgt>
<wgt id='5002'>0.78304E+02</wgt>
<wgt id='5003'>0.77385E+02</wgt>
<wgt id='5004'>0.77898E+02</wgt>
<wgt id='5005'>0.77659E+02</wgt>
<wgt id='5006'>0.77643E+02</wgt>
<wgt id='5007'>0.78017E+02</wgt>
<wgt id='5008'>0.77358E+02</wgt>
<wgt id='5009'>0.77883E+02</wgt>
<wgt id='5010'>0.77418E+02</wgt>
<wgt id='5011'>0.76458E+02</wgt>
<wgt id='5012'>0.78812E+02</wgt>
<wgt id='5013'>0.78041E+02</wgt>
<wgt id='5014'>0.77378E+02</wgt>
<wgt id='5015'>0.78352E+02</wgt>
<wgt id='5016'>0.78352E+02</wgt>
<wgt id='5017'>0.77461E+02</wgt>
<wgt id='5018'>0.77782E+02</wgt>
<wgt id='5019'>0.77043E+02</wgt>
<wgt id='5020'>0.78501E+02</wgt>
<wgt id='5021'>0.77337E+02</wgt>
<wgt id='5022'>0.78140E+02</wgt>
<wgt id='5023'>0.77645E+02</wgt>
<wgt id='5024'>0.77672E+02</wgt>
<wgt id='5025'>0.77997E+02</wgt>
<wgt id='5026'>0.77274E+02</wgt>
<wgt id='5027'>0.78012E+02</wgt>
<wgt id='5028'>0.76681E+02</wgt>
<wgt id='5029'>0.77863E+02</wgt>
<wgt id='5030'>0.77530E+02</wgt>
<wgt id='5031'>0.78388E+02</wgt>
<wgt id='5032'>0.75530E+02</wgt>
<wgt id='5033'>0.78115E+02</wgt>
<wgt id='5034'>0.77160E+02</wgt>
<wgt id='5035'>0.77405E+02</wgt>
<wgt id='5036'>0.77988E+02</wgt>
<wgt id='5037'>0.77090E+02</wgt>
<wgt id='5038'>0.77965E+02</wgt>
<wgt id='5039'>0.77754E+02</wgt>
<wgt id='5040'>0.77370E+02</wgt>
<wgt id='5041'>0.77719E+02</wgt>
<wgt id='5042'>0.77573E+02</wgt>
<wgt id='5043'>0.77925E+02</wgt>
<wgt id='5044'>0.77346E+02</wgt>
<wgt id='5045'>0.77475E+02</wgt>
<wgt id='5046'>0.77997E+02</wgt>
<wgt id='5047'>0.77611E+02</wgt>
<wgt id='5048'>0.77680E+02</wgt>
<wgt id='5049'>0.77703E+02</wgt>
<wgt id='5050'>0.77604E+02</wgt>
<wgt id='5051'>0.77216E+02</wgt>
<wgt id='5052'>0.78027E+02</wgt>
<wgt id='5053'>0.77521E+02</wgt>
<wgt id='5054'>0.77750E+02</wgt>
<wgt id='5055'>0.77621E+02</wgt>
<wgt id='5056'>0.77751E+02</wgt>
<wgt id='5057'>0.76406E+02</wgt>
<wgt id='5058'>0.78411E+02</wgt>
<wgt id='5059'>0.77842E+02</wgt>
<wgt id='5060'>0.77562E+02</wgt>
<wgt id='5061'>0.76402E+02</wgt>
<wgt id='5062'>0.77784E+02</wgt>
<wgt id='5063'>0.78646E+02</wgt>
<wgt id='5064'>0.77599E+02</wgt>
<wgt id='5100'>0.77654E+02</wgt>
<wgt id='5101'>0.77627E+02</wgt>
<wgt id='6000'>0.77516E+02</wgt>
<wgt id='6001'>0.77613E+02</wgt>
<wgt id='6002'>0.76619E+02</wgt>
<wgt id='6003'>0.77557E+02</wgt>
<wgt id='6004'>0.75296E+02</wgt>
<wgt id='6005'>0.77488E+02</wgt>
<wgt id='6006'>0.77927E+02</wgt>
<wgt id='6007'>0.77599E+02</wgt>
<wgt id='6008'>0.77538E+02</wgt>
<wgt id='6009'>0.77626E+02</wgt>
<wgt id='6010'>0.77366E+02</wgt>
<wgt id='6011'>0.77891E+02</wgt>
<wgt id='6012'>0.77997E+02</wgt>
<wgt id='6013'>0.77592E+02</wgt>
<wgt id='6014'>0.77701E+02</wgt>
<wgt id='6015'>0.77717E+02</wgt>
<wgt id='6016'>0.78335E+02</wgt>
<wgt id='6017'>0.77978E+02</wgt>
<wgt id='6018'>0.78254E+02</wgt>
<wgt id='6019'>0.76785E+02</wgt>
<wgt id='6020'>0.77884E+02</wgt>
<wgt id='6021'>0.76346E+02</wgt>
<wgt id='6022'>0.77323E+02</wgt>
<wgt id='6023'>0.77343E+02</wgt>
<wgt id='6024'>0.77706E+02</wgt>
<wgt id='6025'>0.78010E+02</wgt>
<wgt id='6026'>0.77610E+02</wgt>
<wgt id='6027'>0.77475E+02</wgt>
<wgt id='6028'>0.77423E+02</wgt>
<wgt id='6029'>0.77231E+02</wgt>
<wgt id='6030'>0.77667E+02</wgt>
<wgt id='6031'>0.77469E+02</wgt>
<wgt id='6032'>0.77647E+02</wgt>
<wgt id='6033'>0.77638E+02</wgt>
<wgt id='6034'>0.77572E+02</wgt>
<wgt id='6035'>0.77703E+02</wgt>
<wgt id='6036'>0.77280E+02</wgt>
<wgt id='6037'>0.77605E+02</wgt>
<wgt id='6038'>0.79079E+02</wgt>
<wgt id='6039'>0.77589E+02</wgt>
<wgt id='6040'>0.77839E+02</wgt>
<wgt id='6041'>0.76645E+02</wgt>
<wgt id='6042'>0.79457E+02</wgt>
<wgt id='7000'>0.54894E+02</wgt>
<wgt id='7001'>0.54954E+02</wgt>
<wgt id='7002'>0.54737E+02</wgt>
<wgt id='7003'>0.54653E+02</wgt>
<wgt id='7004'>0.55038E+02</wgt>
<wgt id='7005'>0.54885E+02</wgt>
<wgt id='7006'>0.54806E+02</wgt>
<wgt id='7007'>0.54455E+02</wgt>
<wgt id='7008'>0.55229E+02</wgt>
<wgt id='7009'>0.55061E+02</wgt>
<wgt id='7010'>0.54631E+02</wgt>
<wgt id='7011'>0.55108E+02</wgt>
<wgt id='7012'>0.54585E+02</wgt>
<wgt id='7013'>0.54749E+02</wgt>
<wgt id='7014'>0.54938E+02</wgt>
<wgt id='7015'>0.54821E+02</wgt>
<wgt id='7016'>0.54781E+02</wgt>
<wgt id='7017'>0.54938E+02</wgt>
<wgt id='7018'>0.54749E+02</wgt>
<wgt id='7019'>0.54859E+02</wgt>
<wgt id='7020'>0.54829E+02</wgt>
<wgt id='7021'>0.55571E+02</wgt>
<wgt id='7022'>0.54102E+02</wgt>
<wgt id='7023'>0.56387E+02</wgt>
<wgt id='7024'>0.53424E+02</wgt>
<wgt id='7025'>0.58202E+02</wgt>
<wgt id='7026'>0.51942E+02</wgt>
<wgt id='7027'>0.57316E+02</wgt>
<wgt id='7028'>0.52658E+02</wgt>
<wgt id='8000'>0.74966E+02</wgt>
<wgt id='8001'>0.74950E+02</wgt>
<wgt id='8002'>0.74988E+02</wgt>
<wgt id='8003'>0.74802E+02</wgt>
<wgt id='8004'>0.74971E+02</wgt>
<wgt id='8005'>0.75273E+02</wgt>
<wgt id='8006'>0.74394E+02</wgt>
<wgt id='8007'>0.75309E+02</wgt>
<wgt id='8008'>0.74969E+02</wgt>
<wgt id='8009'>0.74529E+02</wgt>
<wgt id='8010'>0.74878E+02</wgt>
<wgt id='8011'>0.75057E+02</wgt>
<wgt id='8012'>0.75012E+02</wgt>
<wgt id='8013'>0.75000E+02</wgt>
<wgt id='8014'>0.75019E+02</wgt>
<wgt id='8015'>0.75043E+02</wgt>
<wgt id='8016'>0.74717E+02</wgt>
<wgt id='8017'>0.74863E+02</wgt>
<wgt id='8018'>0.74845E+02</wgt>
<wgt id='8019'>0.74982E+02</wgt>
<wgt id='8020'>0.75601E+02</wgt>
<wgt id='8021'>0.74803E+02</wgt>
<wgt id='8022'>0.74681E+02</wgt>
<wgt id='8023'>0.74839E+02</wgt>
<wgt id='8024'>0.75007E+02</wgt>
<wgt id='8025'>0.74805E+02</wgt>
<wgt id='8026'>0.75335E+02</wgt>
<wgt id='8027'>0.74391E+02</wgt>
<wgt id='8028'>0.75350E+02</wgt>
<wgt id='8029'>0.74582E+02</wgt>
<wgt id='3000'>0.81104E+02</wgt>
<wgt id='3001'>0.92709E+02</wgt>
<wgt id='3002'>0.81153E+02</wgt>
<wgt id='3003'>0.84474E+02</wgt>
<wgt id='3004'>0.83226E+02</wgt>
<wgt id='3005'>0.80241E+02</wgt>
<wgt id='3006'>0.83033E+02</wgt>
<wgt id='3007'>0.79687E+02</wgt>
<wgt id='3008'>0.78151E+02</wgt>
<wgt id='3009'>0.76912E+02</wgt>
<wgt id='3010'>0.80204E+02</wgt>
<wgt id='3011'>0.79934E+02</wgt>
<wgt id='3012'>0.78440E+02</wgt>
<wgt id='3013'>0.82037E+02</wgt>
<wgt id='3014'>0.80179E+02</wgt>
<wgt id='3015'>0.79595E+02</wgt>
<wgt id='3016'>0.81401E+02</wgt>
<wgt id='3017'>0.85573E+02</wgt>
<wgt id='3018'>0.80247E+02</wgt>
<wgt id='3019'>0.83102E+02</wgt>
<wgt id='3020'>0.77355E+02</wgt>
<wgt id='3021'>0.81155E+02</wgt>
<wgt id='3022'>0.85212E+02</wgt>
<wgt id='3023'>0.82762E+02</wgt>
<wgt id='3024'>0.81172E+02</wgt>
<wgt id='3025'>0.75990E+02</wgt>
<wgt id='3026'>0.82725E+02</wgt>
<wgt id='3027'>0.89715E+02</wgt>
<wgt id='3028'>0.82405E+02</wgt>
<wgt id='3029'>0.80005E+02</wgt>
<wgt id='3030'>0.80479E+02</wgt>
<wgt id='3031'>0.84035E+02</wgt>
<wgt id='3032'>0.79273E+02</wgt>
<wgt id='3033'>0.87610E+02</wgt>
<wgt id='3034'>0.79267E+02</wgt>
<wgt id='3035'>0.84228E+02</wgt>
<wgt id='3036'>0.80463E+02</wgt>
<wgt id='3037'>0.81626E+02</wgt>
<wgt id='3038'>0.79635E+02</wgt>
<wgt id='3039'>0.79014E+02</wgt>
<wgt id='3040'>0.80103E+02</wgt>
<wgt id='3041'>0.83020E+02</wgt>
<wgt id='3042'>0.81746E+02</wgt>
<wgt id='3043'>0.88824E+02</wgt>
<wgt id='3044'>0.82086E+02</wgt>
<wgt id='3045'>0.81626E+02</wgt>
<wgt id='3046'>0.80958E+02</wgt>
<wgt id='3047'>0.80254E+02</wgt>
<wgt id='3048'>0.80658E+02</wgt>
<wgt id='3049'>0.80113E+02</wgt>
<wgt id='3050'>0.81512E+02</wgt>
<wgt id='3051'>0.82656E+02</wgt>
<wgt id='3052'>0.77569E+02</wgt>
<wgt id='3053'>0.80168E+02</wgt>
<wgt id='3054'>0.84781E+02</wgt>
<wgt id='3055'>0.84381E+02</wgt>
<wgt id='3056'>0.82348E+02</wgt>
<wgt id='3057'>0.82841E+02</wgt>
<wgt id='3058'>0.80752E+02</wgt>
<wgt id='3059'>0.76321E+02</wgt>
<wgt id='3060'>0.82240E+02</wgt>
<wgt id='3061'>0.80721E+02</wgt>
<wgt id='3062'>0.83204E+02</wgt>
<wgt id='3063'>0.83580E+02</wgt>
<wgt id='3064'>0.80606E+02</wgt>
<wgt id='3065'>0.82425E+02</wgt>
<wgt id='3066'>0.76320E+02</wgt>
<wgt id='3067'>0.85256E+02</wgt>
<wgt id='3068'>0.82942E+02</wgt>
<wgt id='3069'>0.77858E+02</wgt>
<wgt id='3070'>0.80924E+02</wgt>
<wgt id='3071'>0.81726E+02</wgt>
<wgt id='3072'>0.83935E+02</wgt>
<wgt id='3073'>0.72240E+02</wgt>
<wgt id='3074'>0.76403E+02</wgt>
<wgt id='3075'>0.77473E+02</wgt>
<wgt id='3076'>0.86289E+02</wgt>
<wgt id='3077'>0.77982E+02</wgt>
<wgt id='3078'>0.77654E+02</wgt>
<wgt id='3079'>0.79578E+02</wgt>
<wgt id='3080'>0.86032E+02</wgt>
<wgt id='3081'>0.82628E+02</wgt>
<wgt id='3082'>0.81401E+02</wgt>
<wgt id='3083'>0.78546E+02</wgt>
<wgt id='3084'>0.80257E+02</wgt>
<wgt id='3085'>0.77439E+02</wgt>
<wgt id='3086'>0.86947E+02</wgt>
<wgt id='3087'>0.79053E+02</wgt>
<wgt id='3088'>0.84713E+02</wgt>
<wgt id='3089'>0.67513E+02</wgt>
<wgt id='3090'>0.78886E+02</wgt>
<wgt id='3091'>0.80819E+02</wgt>
<wgt id='3092'>0.71198E+02</wgt>
<wgt id='3093'>0.78821E+02</wgt>
<wgt id='3094'>0.81580E+02</wgt>
<wgt id='3095'>0.80934E+02</wgt>
<wgt id='3096'>0.79820E+02</wgt>
<wgt id='3097'>0.85537E+02</wgt>
<wgt id='3098'>0.83111E+02</wgt>
<wgt id='3099'>0.79002E+02</wgt>
<wgt id='3100'>0.80820E+02</wgt>
<wgt id='3200'>0.82197E+02</wgt>
<wgt id='3201'>0.81481E+02</wgt>
<wgt id='3202'>0.85887E+02</wgt>
<wgt id='3203'>0.79984E+02</wgt>
<wgt id='3204'>0.87748E+02</wgt>
<wgt id='3205'>0.86555E+02</wgt>
<wgt id='3206'>0.80239E+02</wgt>
<wgt id='3207'>0.81938E+02</wgt>
<wgt id='3208'>0.84316E+02</wgt>
<wgt id='3209'>0.83117E+02</wgt>
<wgt id='3210'>0.78845E+02</wgt>
<wgt id='3211'>0.78019E+02</wgt>
<wgt id='3212'>0.81713E+02</wgt>
<wgt id='3213'>0.82842E+02</wgt>
<wgt id='3214'>0.85744E+02</wgt>
<wgt id='3215'>0.82761E+02</wgt>
<wgt id='3216'>0.86414E+02</wgt>
<wgt id='3217'>0.77095E+02</wgt>
<wgt id='3218'>0.79866E+02</wgt>
<wgt id='3219'>0.81116E+02</wgt>
<wgt id='3220'>0.80838E+02</wgt>
<wgt id='3221'>0.83779E+02</wgt>
<wgt id='3222'>0.83539E+02</wgt>
<wgt id='3223'>0.80962E+02</wgt>
<wgt id='3224'>0.79977E+02</wgt>
<wgt id='3225'>0.85399E+02</wgt>
<wgt id='3226'>0.78703E+02</wgt>
<wgt id='3227'>0.84922E+02</wgt>
<wgt id='3228'>0.85882E+02</wgt>
<wgt id='3229'>0.81039E+02</wgt>
<wgt id='3230'>0.82459E+02</wgt>
<wgt id='3231'>0.81336E+02</wgt>
<wgt id='3232'>0.84142E+02</wgt>
<wgt id='3233'>0.86129E+02</wgt>
<wgt id='3234'>0.81104E+02</wgt>
<wgt id='3235'>0.82464E+02</wgt>
<wgt id='3236'>0.82088E+02</wgt>
<wgt id='3237'>0.81504E+02</wgt>
<wgt id='3238'>0.85027E+02</wgt>
<wgt id='3239'>0.83371E+02</wgt>
<wgt id='3240'>0.79067E+02</wgt>
<wgt id='3241'>0.83821E+02</wgt>
<wgt id='3242'>0.80384E+02</wgt>
<wgt id='3243'>0.83063E+02</wgt>
<wgt id='3244'>0.86318E+02</wgt>
<wgt id='3245'>0.78919E+02</wgt>
<wgt id='3246'>0.83902E+02</wgt>
<wgt id='3247'>0.82118E+02</wgt>
<wgt id='3248'>0.78462E+02</wgt>
<wgt id='3249'>0.84279E+02</wgt>
<wgt id='3250'>0.81932E+02</wgt>
<wgt id='3251'>0.81355E+02</wgt>
<wgt id='3252'>0.85431E+02</wgt>
<wgt id='3253'>0.81859E+02</wgt>
<wgt id='3254'>0.79389E+02</wgt>
<wgt id='3255'>0.80327E+02</wgt>
<wgt id='3256'>0.83347E+02</wgt>
<wgt id='3257'>0.80551E+02</wgt>
<wgt id='3258'>0.83329E+02</wgt>
<wgt id='3259'>0.86696E+02</wgt>
<wgt id='3260'>0.82441E+02</wgt>
<wgt id='3261'>0.86567E+02</wgt>
<wgt id='3262'>0.76687E+02</wgt>
<wgt id='3263'>0.77345E+02</wgt>
<wgt id='3264'>0.78605E+02</wgt>
<wgt id='3265'>0.83483E+02</wgt>
<wgt id='3266'>0.81504E+02</wgt>
<wgt id='3267'>0.81332E+02</wgt>
<wgt id='3268'>0.87291E+02</wgt>
<wgt id='3269'>0.85368E+02</wgt>
<wgt id='3270'>0.78529E+02</wgt>
<wgt id='3271'>0.78747E+02</wgt>
<wgt id='3272'>0.80385E+02</wgt>
<wgt id='3273'>0.80870E+02</wgt>
<wgt id='3274'>0.84137E+02</wgt>
<wgt id='3275'>0.83563E+02</wgt>
<wgt id='3276'>0.82124E+02</wgt>
<wgt id='3277'>0.84571E+02</wgt>
<wgt id='3278'>0.84946E+02</wgt>
<wgt id='3279'>0.82331E+02</wgt>
<wgt id='3280'>0.83861E+02</wgt>
<wgt id='3281'>0.81149E+02</wgt>
<wgt id='3282'>0.83456E+02</wgt>
<wgt id='3283'>0.78104E+02</wgt>
<wgt id='3284'>0.82836E+02</wgt>
<wgt id='3285'>0.83189E+02</wgt>
<wgt id='3286'>0.76254E+02</wgt>
<wgt id='3287'>0.79807E+02</wgt>
<wgt id='3288'>0.79901E+02</wgt>
<wgt id='3289'>0.82053E+02</wgt>
<wgt id='3290'>0.85171E+02</wgt>
<wgt id='3291'>0.81037E+02</wgt>
<wgt id='3292'>0.79880E+02</wgt>
<wgt id='3293'>0.82499E+02</wgt>
<wgt id='3294'>0.81602E+02</wgt>
<wgt id='3295'>0.78897E+02</wgt>
<wgt id='3296'>0.79271E+02</wgt>
<wgt id='3297'>0.86178E+02</wgt>
<wgt id='3298'>0.82682E+02</wgt>
<wgt id='3299'>0.80941E+02</wgt>
<wgt id='3300'>0.85244E+02</wgt>
<wgt id='3301'>0.81717E+02</wgt>
<wgt id='3302'>0.83124E+02</wgt>
<wgt id='3400'>0.78755E+02</wgt>
<wgt id='3401'>0.77300E+02</wgt>
<wgt id='3402'>0.81506E+02</wgt>
<wgt id='3403'>0.80337E+02</wgt>
<wgt id='3404'>0.78234E+02</wgt>
<wgt id='3405'>0.75199E+02</wgt>
<wgt id='3406'>0.81109E+02</wgt>
<wgt id='3407'>0.77240E+02</wgt>
<wgt id='3408'>0.76925E+02</wgt>
<wgt id='3409'>0.77917E+02</wgt>
<wgt id='3410'>0.80561E+02</wgt>
<wgt id='3411'>0.75798E+02</wgt>
<wgt id='3412'>0.75582E+02</wgt>
<wgt id='3413'>0.76689E+02</wgt>
<wgt id='3414'>0.80224E+02</wgt>
<wgt id='3415'>0.77467E+02</wgt>
<wgt id='3416'>0.80142E+02</wgt>
<wgt id='3417'>0.79591E+02</wgt>
<wgt id='3418'>0.78621E+02</wgt>
<wgt id='3419'>0.77561E+02</wgt>
<wgt id='3420'>0.80114E+02</wgt>
<wgt id='3421'>0.79846E+02</wgt>
<wgt id='3422'>0.78361E+02</wgt>
<wgt id='3423'>0.78156E+02</wgt>
<wgt id='3424'>0.77182E+02</wgt>
<wgt id='3425'>0.81422E+02</wgt>
<wgt id='3426'>0.77313E+02</wgt>
<wgt id='3427'>0.82787E+02</wgt>
<wgt id='3428'>0.79090E+02</wgt>
<wgt id='3429'>0.78341E+02</wgt>
<wgt id='3430'>0.73706E+02</wgt>
<wgt id='3431'>0.80208E+02</wgt>
<wgt id='3432'>0.79727E+02</wgt>
<wgt id='3433'>0.81099E+02</wgt>
<wgt id='3434'>0.78612E+02</wgt>
<wgt id='3435'>0.77993E+02</wgt>
<wgt id='3436'>0.81261E+02</wgt>
<wgt id='3437'>0.81799E+02</wgt>
<wgt id='3438'>0.80106E+02</wgt>
<wgt id='3439'>0.76938E+02</wgt>
<wgt id='3440'>0.81781E+02</wgt>
<wgt id='3441'>0.79523E+02</wgt>
<wgt id='3442'>0.80236E+02</wgt>
<wgt id='3443'>0.80826E+02</wgt>
<wgt id='3444'>0.77795E+02</wgt>
<wgt id='3445'>0.76881E+02</wgt>
<wgt id='3446'>0.77037E+02</wgt>
<wgt id='3447'>0.76608E+02</wgt>
<wgt id='3448'>0.78731E+02</wgt>
<wgt id='3449'>0.82765E+02</wgt>
<wgt id='3450'>0.77588E+02</wgt>
<wgt id='3451'>0.77670E+02</wgt>
<wgt id='3452'>0.80891E+02</wgt>
<wgt id='3453'>0.80420E+02</wgt>
<wgt id='3454'>0.73147E+02</wgt>
<wgt id='3455'>0.76596E+02</wgt>
<wgt id='3456'>0.76998E+02</wgt>
<wgt id='3457'>0.79433E+02</wgt>
<wgt id='3458'>0.78351E+02</wgt>
<wgt id='3459'>0.77919E+02</wgt>
<wgt id='3460'>0.77483E+02</wgt>
<wgt id='3461'>0.82182E+02</wgt>
<wgt id='3462'>0.79883E+02</wgt>
<wgt id='3463'>0.77933E+02</wgt>
<wgt id='3464'>0.79388E+02</wgt>
<wgt id='3465'>0.77330E+02</wgt>
<wgt id='3466'>0.77188E+02</wgt>
<wgt id='3467'>0.79359E+02</wgt>
<wgt id='3468'>0.81883E+02</wgt>
<wgt id='3469'>0.79398E+02</wgt>
<wgt id='3470'>0.84522E+02</wgt>
<wgt id='3471'>0.76470E+02</wgt>
<wgt id='3472'>0.75098E+02</wgt>
<wgt id='3473'>0.77897E+02</wgt>
<wgt id='3474'>0.78717E+02</wgt>
<wgt id='3475'>0.78819E+02</wgt>
<wgt id='3476'>0.81280E+02</wgt>
<wgt id='3477'>0.77815E+02</wgt>
<wgt id='3478'>0.78587E+02</wgt>
<wgt id='3479'>0.76691E+02</wgt>
<wgt id='3480'>0.82337E+02</wgt>
<wgt id='3481'>0.81893E+02</wgt>
<wgt id='3482'>0.77887E+02</wgt>
<wgt id='3483'>0.79178E+02</wgt>
<wgt id='3484'>0.79829E+02</wgt>
<wgt id='3485'>0.78015E+02</wgt>
<wgt id='3486'>0.81218E+02</wgt>
<wgt id='3487'>0.76648E+02</wgt>
<wgt id='3488'>0.78185E+02</wgt>
<wgt id='3489'>0.78710E+02</wgt>
<wgt id='3490'>0.77064E+02</wgt>
<wgt id='3491'>0.77262E+02</wgt>
<wgt id='3492'>0.80288E+02</wgt>
<wgt id='3493'>0.77585E+02</wgt>
<wgt id='3494'>0.79673E+02</wgt>
<wgt id='3495'>0.75611E+02</wgt>
<wgt id='3496'>0.78051E+02</wgt>
<wgt id='3497'>0.80426E+02</wgt>
<wgt id='3498'>0.80718E+02</wgt>
<wgt id='3499'>0.78614E+02</wgt>
<wgt id='3500'>0.74877E+02</wgt>
</rwgt>
</event>
<event>
     13 322200  8.11039E+01  1.07083E+01 -1.00000E+00  1.88483E-01
      21    -1     0     0   504   505  0.000000000E+00  0.000000000E+00  2.671668426E+02  2.671668426E+02  0.000000000E+00  0.00000E+00  9.000E+00
      21    -1     0     0   502   503  0.000000000E+00  0.000000000E+00 -1.146409501E+02  1.146409501E+02  0.000000000E+00  0.00000E+00  9.000E+00
       6     2     1     2   502     0  2.409212935E+00  7.696584618E+00  8.241063280E+01  1.913066084E+02  1.724577175E+02  0.00000E+00  9.000E+00
      -6     2     1     2     0   505 -1.147870109E+01 -1.338968607E+01  4.439601513E+01  1.626417773E+02  1.554679944E+02  0.00000E+00  9.000E+00
      21     1     1     2   504   503  9.069488153E+00  5.693101456E+00  2.571924460E+01  2.785940707E+01  3.371747881E-07  0.00000E+00  9.000E+00
      24     2     3     3     0     0  4.670565448E+01 -3.741775407E-02 -3.927796651E+00  9.382882879E+01  8.128346674E+01  0.00000E+00  9.000E+00
       5     1     3     3   502     0 -4.429644154E+01  7.734002372E+00  8.633842945E+01  9.747777965E+01  5.060000000E+00  0.00000E+00 -1.000E+00
     -24     2     4     4     0     0 -1.405444358E+01  4.413925178E+01  3.896064428E+00  9.205804864E+01  7.945881996E+01  0.00000E+00  9.000E+00
      -5     1     4     4     0   505  2.575742493E+00 -5.752893786E+01  4.049995070E+01  7.058372863E+01  5.060000000E+00  0.00000E+00  1.000E+00
     -13     1     6     6     0     0  5.902874561E+01  2.385691691E+01  8.460107211E+00  6.422717400E+01  1.057000000E-01  0.00000E+00  1.000E+00
      14     1     6     6     0     0 -1.232309114E+01 -2.389433467E+01 -1.238790386E+01  2.960165479E+01  0.000000000E+00  0.00000E+00 -1.000E+00
      13     1     8     8     0     0  1.135688785E+01  5.288896462E+01 -1.839965176E+01  5.713825196E+01  1.057000000E-01  0.00000E+00 -1.000E+00
     -14     1     8     8     0     0 -2.541133143E+01 -8.749712833E+00  2.229571619E+01  3.491979668E+01  0.000000000E+00  0.00000E+00  1.000E+00
#rwgt            1           1   380.20983360913630               10       37524           0
<rwgt>
<wgt id='1001'>0.81104E+02</wgt>
<wgt id='1002'>0.94430E+02</wgt>
<wgt id='1003'>0.67389E+02</wgt>
<wgt id='1004'>0.69471E+02</wgt>
<wgt id='1005'>0.79423E+02</wgt>
<wgt id='1006'>0.59175E+02</wgt>
<wgt id='1007'>0.95924E+02</wgt>
<wgt id='1008'>0.11426E+03</wgt>
<wgt id='1009'>0.77143E+02</wgt>
<wgt id='2000'>0.81104E+02</wgt>
<wgt id='2001'>0.81267E+02</wgt>
<wgt id='2002'>0.80874E+02</wgt>
<wgt id='2003'>0.80972E+02</wgt>
<wgt id='2004'>0.81303E+02</wgt>
<wgt id='2005'>0.81282E+02</wgt>
<wgt id='2006'>0.81335E+02</wgt>
<wgt id='2007'>0.81491E+02</wgt>
<wgt id='2008'>0.81713E+02</wgt>
<wgt id='2009'>0.80965E+02</wgt>
<wgt id='2010'>0.81066E+02</wgt>
<wgt id='2011'>0.80498E+02</wgt>
<wgt id='2012'>0.81411E+02</wgt>
<wgt id='2013'>0.81155E+02</wgt>
<wgt id='2014'>0.81302E+02</wgt>
<wgt id='2015'>0.81239E+02</wgt>
<wgt id='2016'>0.81049E+02</wgt>
<wgt id='2017'>0.80930E+02</wgt>
<wgt id='2018'>0.81230E+02</wgt>
<wgt id='2019'>0.81626E+02</wgt>
<wgt id='2020'>0.80816E+02</wgt>
<wgt id='2021'>0.81214E+02</wgt>
<wgt id='2022'>0.80923E+02</wgt>
<wgt id='2023'>0.81103E+02</wgt>
<wgt id='2024'>0.81113E+02</wgt>
<wgt id='2025'>0.81074E+02</wgt>
<wgt id='2026'>0.81034E+02</wgt>
<wgt id='2027'>0.80879E+02</wgt>
<wgt id='2028'>0.81239E+02</wgt>
<wgt id='2029'>0.80874E+02</wgt>
<wgt id='2030'>0.81041E+02</wgt>
<wgt id='2031'>0.80889E+02</wgt>
<wgt id='2032'>0.81108E+02</wgt>
<wgt id='2033'>0.81023E+02</wgt>
<wgt id='2034'>0.81007E+02</wgt>
<wgt id='2035'>0.81120E+02</wgt>
<wgt id='2036'>0.81244E+02</wgt>
<wgt id='2037'>0.81099E+02</wgt>
<wgt id='2038'>0.81103E+02</wgt>
<wgt id='2039'>0.81093E+02</wgt>
<wgt id='2040'>0.81083E+02</wgt>
<wgt id='2041'>0.81111E+02</wgt>
<wgt id='2042'>0.81129E+02</wgt>
<wgt id='2043'>0.81046E+02</wgt>
<wgt id='2044'>0.81141E+02</wgt>
<wgt id='2045'>0.81133E+02</wgt>
<wgt id='2046'>0.81133E+02</wgt>
<wgt id='2047'>0.81082E+02</wgt>
<wgt id='2048'>0.81076E+02</wgt>
<wgt id='2049'>0.81056E+02</wgt>
<wgt id='2050'>0.81079E+02</wgt>
<wgt id='2051'>0.81091E+02</wgt>
<wgt id='2052'>0.81154E+02</wgt>
<wgt id='2053'>0.81093E+02</wgt>
<wgt id='2054'>0.81106E+02</wgt>
<wgt id='2055'>0.81124E+02</wgt>
<wgt id='2056'>0.81084E+02</wgt>
<wgt id='2057'>0.81133E+02</wgt>
<wgt id='2058'>0.81108E+02</wgt>
<wgt id='2059'>0.81120E+02</wgt>
<wgt id='2060'>0.81103E+02</wgt>
<wgt id='2061'>0.81089E+02</wgt>
<wgt id='2062'>0.81158E+02</wgt>
<wgt id='2063'>0.81118E+02</wgt>
<wgt id='2064'>0.81124E+02</wgt>
<wgt id='2065'>0.81159E+02</wgt>
<wgt id='2066'>0.81113E+02</wgt>
<wgt id='2067'>0.81126E+02</wgt>
<wgt id='2068'>0.81116E+02</wgt>
<wgt id='2069'>0.81112E+02</wgt>
<wgt id='2070'>0.81109E+02</wgt>
<wgt id='2071'>0.81112E+02</wgt>
<wgt id='2072'>0.81106E+02</wgt>
<wgt id='2073'>0.81120E+02</wgt>
<wgt id='2074'>0.81093E+02</wgt>
<wgt id='2075'>0.81092E+02</wgt>
<wgt id='2076'>0.81095E+02</wgt>
<wgt id='2077'>0.81148E+02</wgt>
<wgt id='2078'>0.81107E+02</wgt>
<wgt id='2079'>0.81089E+02</wgt>
<wgt id='2080'>0.81107E+02</wgt>
<wgt id='2081'>0.81091E+02</wgt>
<wgt id='2082'>0.81115E+02</wgt>
<wgt id='2083'>0.81123E+02</wgt>
<wgt id='2084'>0.81113E+02</wgt>
<wgt id='2085'>0.81101E+02</wgt>
<wgt id='2086'>0.81091E+02</wgt>
<wgt id='2087'>0.81113E+02</wgt>
<wgt id='2088'>0.81101E+02</wgt>
<wgt id='2089'>0.81101E+02</wgt>
<wgt id='2090'>0.81116E+02</wgt>
<wgt id='2091'>0.81107E+02</wgt>
<wgt id='2092'>0.81115E+02</wgt>
<wgt id='2093'>0.81092E+02</wgt>
<wgt id='2094'>0.81100E+02</wgt>
<wgt id='2095'>0.81111E+02</wgt>
<wgt id='2096'>0.81097E+02</wgt>
<wgt id='2097'>0.81109E+02</wgt>
<wgt id='2098'>0.81104E+02</wgt>
<wgt id='2099'>0.81113E+02</wgt>
<wgt id='2100'>0.81104E+02</wgt>
<wgt id='2101'>0.78794E+02</wgt>
<wgt id='2102'>0.83146E+02</wgt>
<wgt id='2200'>0.81110E+02</wgt>
<wgt id='2201'>0.71038E+02</wgt>
<wgt id='2202'>0.72840E+02</wgt>
<wgt id='2203'>0.75132E+02</wgt>
<wgt id='2204'>0.77344E+02</wgt>
<wgt id='2205'>0.80259E+02</wgt>
<wgt id='2206'>0.82374E+02</wgt>
<wgt id='2207'>0.84854E+02</wgt>
<wgt id='2208'>0.86925E+02</wgt>
<wgt id='2300'>0.84567E+02</wgt>
<wgt id='2301'>0.84753E+02</wgt>
<wgt id='2302'>0.84434E+02</wgt>
<wgt id='2303'>0.84772E+02</wgt>
<wgt id='2304'>0.84753E+02</wgt>
<wgt id='2305'>0.84940E+02</wgt>
<wgt id='2306'>0.84607E+02</wgt>
<wgt id='2307'>0.84899E+02</wgt>
<wgt id='2308'>0.84411E+02</wgt>
<wgt id='2309'>0.84813E+02</wgt>
<wgt id='2310'>0.84307E+02</wgt>
<wgt id='2311'>0.84511E+02</wgt>
<wgt id='2312'>0.84976E+02</wgt>
<wgt id='2313'>0.84272E+02</wgt>
<wgt id='2314'>0.84904E+02</wgt>
<wgt id='2315'>0.84568E+02</wgt>
<wgt id='2316'>0.84643E+02</wgt>
<wgt id='2317'>0.84919E+02</wgt>
<wgt id='2318'>0.84830E+02</wgt>
<wgt id='2319'>0.84126E+02</wgt>
<wgt id='2320'>0.84258E+02</wgt>
<wgt id='2321'>0.84122E+02</wgt>
<wgt id='2322'>0.84535E+02</wgt>
<wgt id='2323'>0.84331E+02</wgt>
<wgt id='2324'>0.84292E+02</wgt>
<wgt id='2325'>0.84569E+02</wgt>
<wgt id='2326'>0.84746E+02</wgt>
<wgt id='2327'>0.84600E+02</wgt>
<wgt id='2328'>0.84283E+02</wgt>
<wgt id='2329'>0.84514E+02</wgt>
<wgt id='2330'>0.84690E+02</wgt>
<wgt id='2331'>0.84616E+02</wgt>
<wgt id='2332'>0.84635E+02</wgt>
<wgt id='2333'>0.84640E+02</wgt>
<wgt id='2334'>0.84611E+02</wgt>
<wgt id='2335'>0.84640E+02</wgt>
<wgt id='2336'>0.84594E+02</wgt>
<wgt id='2337'>0.84576E+02</wgt>
<wgt id='2338'>0.84567E+02</wgt>
<wgt id='2339'>0.84566E+02</wgt>
<wgt id='2340'>0.84575E+02</wgt>
<wgt id='2341'>0.84579E+02</wgt>
<wgt id='2342'>0.84490E+02</wgt>
<wgt id='2343'>0.84497E+02</wgt>
<wgt id='2344'>0.84598E+02</wgt>
<wgt id='2345'>0.84619E+02</wgt>
<wgt id='2346'>0.84601E+02</wgt>
<wgt id='2347'>0.84549E+02</wgt>
<wgt id='2348'>0.84608E+02</wgt>
<wgt id='2349'>0.84551E+02</wgt>
<wgt id='2350'>0.84562E+02</wgt>
<wgt id='2351'>0.84645E+02</wgt>
<wgt id='2352'>0.84548E+02</wgt>
<wgt id='2353'>0.84546E+02</wgt>
<wgt id='2354'>0.84551E+02</wgt>
<wgt id='2355'>0.84562E+02</wgt>
<wgt id='2356'>0.84579E+02</wgt>
<wgt id='2357'>0.84537E+02</wgt>
<wgt id='2358'>0.84544E+02</wgt>
<wgt id='2359'>0.84562E+02</wgt>
<wgt id='2360'>0.84577E+02</wgt>
<wgt id='2361'>0.84578E+02</wgt>
<wgt id='2362'>0.84576E+02</wgt>
<wgt id='2363'>0.84591E+02</wgt>
<wgt id='2364'>0.84561E+02</wgt>
<wgt id='2365'>0.84574E+02</wgt>
<wgt id='2366'>0.84577E+02</wgt>
<wgt id='2367'>0.84544E+02</wgt>
<wgt id='2368'>0.84564E+02</wgt>
<wgt id='2369'>0.84544E+02</wgt>
<wgt id='2370'>0.84559E+02</wgt>
<wgt id='2371'>0.84569E+02</wgt>
<wgt id='2372'>0.84581E+02</wgt>
<wgt id='2373'>0.84556E+02</wgt>
<wgt id='2374'>0.84595E+02</wgt>
<wgt id='2375'>0.84572E+02</wgt>
<wgt id='2376'>0.84571E+02</wgt>
<wgt id='2377'>0.84569E+02</wgt>
<wgt id='2378'>0.84581E+02</wgt>
<wgt id='2379'>0.84558E+02</wgt>
<wgt id='2380'>0.84550E+02</wgt>
<wgt id='2381'>0.84559E+02</wgt>
<wgt id='2382'>0.84554E+02</wgt>
<wgt id='2383'>0.84574E+02</wgt>
<wgt id='2384'>0.84563E+02</wgt>
<wgt id='2385'>0.84578E+02</wgt>
<wgt id='2386'>0.84576E+02</wgt>
<wgt id='2387'>0.84562E+02</wgt>
<wgt id='2388'>0.84559E+02</wgt>
<wgt id='2389'>0.84571E+02</wgt>
<wgt id='2390'>0.84572E+02</wgt>
<wgt id='2391'>0.84562E+02</wgt>
<wgt id='2392'>0.84560E+02</wgt>
<wgt id='2393'>0.84571E+02</wgt>
<wgt id='2394'>0.84579E+02</wgt>
<wgt id='2395'>0.84567E+02</wgt>
<wgt id='2396'>0.84551E+02</wgt>
<wgt id='2397'>0.84553E+02</wgt>
<wgt id='2398'>0.84557E+02</wgt>
<wgt id='2399'>0.84573E+02</wgt>
<wgt id='2400'>0.84573E+02</wgt>
<wgt id='2401'>0.82374E+02</wgt>
<wgt id='2402'>0.86957E+02</wgt>
<wgt id='2500'>0.80616E+02</wgt>
<wgt id='2501'>0.84665E+02</wgt>
<wgt id='2600'>0.79018E+02</wgt>
<wgt id='2601'>0.78970E+02</wgt>
<wgt id='2602'>0.79035E+02</wgt>
<wgt id='2603'>0.78976E+02</wgt>
<wgt id='2604'>0.79215E+02</wgt>
<wgt id='2605'>0.78894E+02</wgt>
<wgt id='2606'>0.78726E+02</wgt>
<wgt id='2607'>0.79268E+02</wgt>
<wgt id='2608'>0.78866E+02</wgt>
<wgt id='2609'>0.79001E+02</wgt>
<wgt id='2610'>0.78980E+02</wgt>
<wgt id='2611'>0.78957E+02</wgt>
<wgt id='2612'>0.79373E+02</wgt>
<wgt id='2613'>0.78999E+02</wgt>
<wgt id='2614'>0.79028E+02</wgt>
<wgt id='2615'>0.78968E+02</wgt>
<wgt id='2616'>0.79002E+02</wgt>
<wgt id='2617'>0.78970E+02</wgt>
<wgt id='2618'>0.78896E+02</wgt>
<wgt id='2619'>0.79040E+02</wgt>
<wgt id='2620'>0.79060E+02</wgt>
<wgt id='2621'>0.78992E+02</wgt>
<wgt id='2622'>0.78990E+02</wgt>
<wgt id='2623'>0.79016E+02</wgt>
<wgt id='2624'>0.79022E+02</wgt>
<wgt id='2625'>0.79006E+02</wgt>
<wgt id='2626'>0.79021E+02</wgt>
<wgt id='2627'>0.79002E+02</wgt>
<wgt id='2628'>0.79021E+02</wgt>
<wgt id='2629'>0.79019E+02</wgt>
<wgt id='2630'>0.79007E+02</wgt>
<wgt id='2631'>0.79035E+02</wgt>
<wgt id='2632'>0.79008E+02</wgt>
<wgt id='2633'>0.79023E+02</wgt>
<wgt id='2634'>0.79033E+02</wgt>
<wgt id='2635'>0.79007E+02</wgt>
<wgt id='2636'>0.79021E+02</wgt>
<wgt id='2637'>0.79014E+02</wgt>
<wgt id='2638'>0.79008E+02</wgt>
<wgt id='2639'>0.79020E+02</wgt>
<wgt id='2640'>0.79022E+02</wgt>
<wgt id='2641'>0.79010E+02</wgt>
<wgt id='2642'>0.79014E+02</wgt>
<wgt id='2643'>0.79017E+02</wgt>
<wgt id='2644'>0.79019E+02</wgt>
<wgt id='2645'>0.79015E+02</wgt>
<wgt id='2646'>0.79015E+02</wgt>
<wgt id='2647'>0.79019E+02</wgt>
<wgt id='2648'>0.79018E+02</wgt>
<wgt id='2649'>0.79019E+02</wgt>
<wgt id='2650'>0.79018E+02</wgt>
<wgt id='2651'>0.77619E+02</wgt>
<wgt id='2652'>0.80339E+02</wgt>
<wgt id='2700'>0.76248E+02</wgt>
<wgt id='2701'>0.77619E+02</wgt>
<wgt id='2702'>0.78358E+02</wgt>
<wgt id='2703'>0.79615E+02</wgt>
<wgt id='2704'>0.80339E+02</wgt>
<wgt id='2705'>0.81603E+02</wgt>
<wgt id='2800'>0.80342E+02</wgt>
<wgt id='4000'>0.78837E+02</wgt>
<wgt id='4001'>0.79151E+02</wgt>
<wgt id='4002'>0.78616E+02</wgt>
<wgt id='4003'>0.79672E+02</wgt>
<wgt id='4004'>0.77705E+02</wgt>
<wgt id='4005'>0.78246E+02</wgt>
<wgt id='4006'>0.79226E+02</wgt>
<wgt id='4007'>0.79873E+02</wgt>
<wgt id='4008'>0.77769E+02</wgt>
<wgt id='4009'>0.79440E+02</wgt>
<wgt id='4010'>0.78435E+02</wgt>
<wgt id='4011'>0.79033E+02</wgt>
<wgt id='4012'>0.78614E+02</wgt>
<wgt id='4013'>0.79253E+02</wgt>
<wgt id='4014'>0.78413E+02</wgt>
<wgt id='4015'>0.78679E+02</wgt>
<wgt id='4016'>0.78412E+02</wgt>
<wgt id='4017'>0.78712E+02</wgt>
<wgt id='4018'>0.78991E+02</wgt>
<wgt id='4019'>0.79404E+02</wgt>
<wgt id='4020'>0.77867E+02</wgt>
<wgt id='4021'>0.78798E+02</wgt>
<wgt id='4022'>0.78862E+02</wgt>
<wgt id='4023'>0.78108E+02</wgt>
<wgt id='4024'>0.79318E+02</wgt>
<wgt id='4025'>0.79133E+02</wgt>
<wgt id='4026'>0.78006E+02</wgt>
<wgt id='4027'>0.78450E+02</wgt>
<wgt id='4028'>0.79100E+02</wgt>
<wgt id='4029'>0.77472E+02</wgt>
<wgt id='4030'>0.79548E+02</wgt>
<wgt id='4031'>0.78992E+02</wgt>
<wgt id='4032'>0.77601E+02</wgt>
<wgt id='4033'>0.78269E+02</wgt>
<wgt id='4034'>0.79271E+02</wgt>
<wgt id='4035'>0.79406E+02</wgt>
<wgt id='4036'>0.78294E+02</wgt>
<wgt id='4037'>0.79436E+02</wgt>
<wgt id='4038'>0.78158E+02</wgt>
<wgt id='4039'>0.79736E+02</wgt>
<wgt id='4040'>0.77796E+02</wgt>
<wgt id='4041'>0.78585E+02</wgt>
<wgt id='4042'>0.79017E+02</wgt>
<wgt id='4043'>0.77754E+02</wgt>
<wgt id='4044'>0.79571E+02</wgt>
<wgt id='4045'>0.80939E+02</wgt>
<wgt id='4046'>0.77795E+02</wgt>
<wgt id='4047'>0.77488E+02</wgt>
<wgt id='4048'>0.79226E+02</wgt>
<wgt id='4049'>0.78494E+02</wgt>
<wgt id='4050'>0.79012E+02</wgt>
<wgt id='4051'>0.80193E+02</wgt>
<wgt id='4052'>0.77449E+02</wgt>
<wgt id='4053'>0.79868E+02</wgt>
<wgt id='4054'>0.77679E+02</wgt>
<wgt id='4055'>0.79117E+02</wgt>
<wgt id='4056'>0.78360E+02</wgt>
<wgt id='4057'>0.78107E+02</wgt>
<wgt id='4058'>0.79356E+02</wgt>
<wgt id='4100'>0.79966E+02</wgt>
<wgt id='4101'>0.79434E+02</wgt>
<wgt id='4102'>0.78192E+02</wgt>
<wgt id='4103'>0.77517E+02</wgt>
<wgt id='4200'>0.75841E+02</wgt>
<wgt id='4201'>0.75984E+02</wgt>
<wgt id='4202'>0.75826E+02</wgt>
<wgt id='4203'>0.75340E+02</wgt>
<wgt id='4204'>0.76288E+02</wgt>
<wgt id='4205'>0.75861E+02</wgt>
<wgt id='4206'>0.75805E+02</wgt>
<wgt id='4207'>0.75452E+02</wgt>
<wgt id='4208'>0.76107E+02</wgt>
<wgt id='4209'>0.75925E+02</wgt>
<wgt id='4210'>0.75841E+02</wgt>
<wgt id='4211'>0.76756E+02</wgt>
<wgt id='4212'>0.75091E+02</wgt>
<wgt id='4213'>0.75905E+02</wgt>
<wgt id='4214'>0.75720E+02</wgt>
<wgt id='4215'>0.76046E+02</wgt>
<wgt id='4216'>0.75210E+02</wgt>
<wgt id='4217'>0.75455E+02</wgt>
<wgt id='4218'>0.76137E+02</wgt>
<wgt id='4219'>0.74855E+02</wgt>
<wgt id='4220'>0.76647E+02</wgt>
<wgt id='4221'>0.75271E+02</wgt>
<wgt id='4222'>0.76350E+02</wgt>
<wgt id='4223'>0.76788E+02</wgt>
<wgt id='4224'>0.75143E+02</wgt>
<wgt id='4225'>0.74244E+02</wgt>
<wgt id='4226'>0.77111E+02</wgt>
<wgt id='4227'>0.76046E+02</wgt>
<wgt id='4228'>0.75644E+02</wgt>
<wgt id='4229'>0.75810E+02</wgt>
<wgt id='4230'>0.75774E+02</wgt>
<wgt id='4231'>0.75627E+02</wgt>
<wgt id='4232'>0.76093E+02</wgt>
<wgt id='4233'>0.76085E+02</wgt>
<wgt id='4234'>0.75613E+02</wgt>
<wgt id='4235'>0.76083E+02</wgt>
<wgt id='4236'>0.75602E+02</wgt>
<wgt id='4237'>0.75639E+02</wgt>
<wgt id='4238'>0.76047E+02</wgt>
<wgt id='4239'>0.77085E+02</wgt>
<wgt id='4240'>0.74105E+02</wgt>
<wgt id='4241'>0.75225E+02</wgt>
<wgt id='4242'>0.76518E+02</wgt>
<wgt id='4243'>0.75845E+02</wgt>
<wgt id='4244'>0.75829E+02</wgt>
<wgt id='4245'>0.74782E+02</wgt>
<wgt id='4246'>0.76983E+02</wgt>
<wgt id='4247'>0.75596E+02</wgt>
<wgt id='4248'>0.76009E+02</wgt>
<wgt id='4249'>0.76739E+02</wgt>
<wgt id='4250'>0.74712E+02</wgt>
<wgt id='4251'>0.74317E+02</wgt>
<wgt id='4252'>0.76714E+02</wgt>
<wgt id='4253'>0.75220E+02</wgt>
<wgt id='4254'>0.76361E+02</wgt>
<wgt id='4255'>0.75615E+02</wgt>
<wgt id='4256'>0.75787E+02</wgt>
<wgt id='4257'>0.74422E+02</wgt>
<wgt id='4258'>0.76259E+02</wgt>
<wgt id='4300'>0.78039E+02</wgt>
<wgt id='4301'>0.77049E+02</wgt>
<wgt id='5000'>0.78487E+02</wgt>
<wgt id='5001'>0.78509E+02</wgt>
<wgt id='5002'>0.78458E+02</wgt>
<wgt id='5003'>0.78506E+02</wgt>
<wgt id='5004'>0.78469E+02</wgt>
<wgt id='5005'>0.78473E+02</wgt>
<wgt id='5006'>0.78510E+02</wgt>
<wgt id='5007'>0.78529E+02</wgt>
<wgt id='5008'>0.78453E+02</wgt>
<wgt id='5009'>0.78578E+02</wgt>
<wgt id='5010'>0.78394E+02</wgt>
<wgt id='5011'>0.78627E+02</wgt>
<wgt id='5012'>0.78352E+02</wgt>
<wgt id='5013'>0.78575E+02</wgt>
<wgt id='5014'>0.78424E+02</wgt>
<wgt id='5015'>0.78113E+02</wgt>
<wgt id='5016'>0.78113E+02</wgt>
<wgt id='5017'>0.78959E+02</wgt>
<wgt id='5018'>0.78168E+02</wgt>
<wgt id='5019'>0.78823E+02</wgt>
<wgt id='5020'>0.78027E+02</wgt>
<wgt id='5021'>0.78595E+02</wgt>
<wgt id='5022'>0.78317E+02</wgt>
<wgt id='5023'>0.78366E+02</wgt>
<wgt id='5024'>0.78777E+02</wgt>
<wgt id='5025'>0.78109E+02</wgt>
<wgt id='5026'>0.78914E+02</wgt>
<wgt id='5027'>0.78506E+02</wgt>
<wgt id='5028'>0.78434E+02</wgt>
<wgt id='5029'>0.78882E+02</wgt>
<wgt id='5030'>0.78261E+02</wgt>
<wgt id='5031'>0.78334E+02</wgt>
<wgt id='5032'>0.78936E+02</wgt>
<wgt id='5033'>0.78522E+02</wgt>
<wgt id='5034'>0.78450E+02</wgt>
<wgt id='5035'>0.78483E+02</wgt>
<wgt id='5036'>0.78494E+02</wgt>
<wgt id='5037'>0.78471E+02</wgt>
<wgt id='5038'>0.78498E+02</wgt>
<wgt id='5039'>0.78698E+02</wgt>
<wgt id='5040'>0.77972E+02</wgt>
<wgt id='5041'>0.78961E+02</wgt>
<wgt id='5042'>0.78019E+02</wgt>
<wgt id='5043'>0.78518E+02</wgt>
<wgt id='5044'>0.78513E+02</wgt>
<wgt id='5045'>0.78349E+02</wgt>
<wgt id='5046'>0.78519E+02</wgt>
<wgt id='5047'>0.78503E+02</wgt>
<wgt id='5048'>0.78417E+02</wgt>
<wgt id='5049'>0.78463E+02</wgt>
<wgt id='5050'>0.78519E+02</wgt>
<wgt id='5051'>0.78588E+02</wgt>
<wgt id='5052'>0.78370E+02</wgt>
<wgt id='5053'>0.78230E+02</wgt>
<wgt id='5054'>0.78586E+02</wgt>
<wgt id='5055'>0.78575E+02</wgt>
<wgt id='5056'>0.78485E+02</wgt>
<wgt id='5057'>0.78284E+02</wgt>
<wgt id='5058'>0.78628E+02</wgt>
<wgt id='5059'>0.78493E+02</wgt>
<wgt id='5060'>0.78496E+02</wgt>
<wgt id='5061'>0.78631E+02</wgt>
<wgt id='5062'>0.78466E+02</wgt>
<wgt id='5063'>0.78700E+02</wgt>
<wgt id='5064'>0.78433E+02</wgt>
<wgt id='5100'>0.78487E+02</wgt>
<wgt id='5101'>0.78534E+02</wgt>
<wgt id='6000'>0.78926E+02</wgt>
<wgt id='6001'>0.79153E+02</wgt>
<wgt id='6002'>0.79224E+02</wgt>
<wgt id='6003'>0.78946E+02</wgt>
<wgt id='6004'>0.78770E+02</wgt>
<wgt id='6005'>0.78906E+02</wgt>
<wgt id='6006'>0.79193E+02</wgt>
<wgt id='6007'>0.78890E+02</wgt>
<wgt id='6008'>0.77650E+02</wgt>
<wgt id='6009'>0.79233E+02</wgt>
<wgt id='6010'>0.77978E+02</wgt>
<wgt id='6011'>0.78887E+02</wgt>
<wgt id='6012'>0.79152E+02</wgt>
<wgt id='6013'>0.78744E+02</wgt>
<wgt id='6014'>0.78924E+02</wgt>
<wgt id='6015'>0.78498E+02</wgt>
<wgt id='6016'>0.78923E+02</wgt>
<wgt id='6017'>0.79002E+02</wgt>
<wgt id='6018'>0.78906E+02</wgt>
<wgt id='6019'>0.78958E+02</wgt>
<wgt id='6020'>0.79108E+02</wgt>
<wgt id='6021'>0.79017E+02</wgt>
<wgt id='6022'>0.78846E+02</wgt>
<wgt id='6023'>0.78972E+02</wgt>
<wgt id='6024'>0.78984E+02</wgt>
<wgt id='6025'>0.79110E+02</wgt>
<wgt id='6026'>0.78993E+02</wgt>
<wgt id='6027'>0.78971E+02</wgt>
<wgt id='6028'>0.78841E+02</wgt>
<wgt id='6029'>0.78845E+02</wgt>
<wgt id='6030'>0.79720E+02</wgt>
<wgt id='6031'>0.78799E+02</wgt>
<wgt id='6032'>0.78947E+02</wgt>
<wgt id='6033'>0.78835E+02</wgt>
<wgt id='6034'>0.79093E+02</wgt>
<wgt id='6035'>0.78960E+02</wgt>
<wgt id='6036'>0.79236E+02</wgt>
<wgt id='6037'>0.78946E+02</wgt>
<wgt id='6038'>0.78980E+02</wgt>
<wgt id='6039'>0.79012E+02</wgt>
<wgt id='6040'>0.78936E+02</wgt>
<wgt id='6041'>0.78135E+02</wgt>
<wgt id='6042'>0.79899E+02</wgt>
<wgt id='7000'>0.78624E+02</wgt>
<wgt id='7001'>0.78462E+02</wgt>
<wgt id='7002'>0.78617E+02</wgt>
<wgt id='7003'>0.78550E+02</wgt>
<wgt id='7004'>0.78530E+02</wgt>
<wgt id='7005'>0.78683E+02</wgt>
<wgt id='7006'>0.78397E+02</wgt>
<wgt id='7007'>0.79008E+02</wgt>
<wgt id='7008'>0.78085E+02</wgt>
<wgt id='7009'>0.78339E+02</wgt>
<wgt id='7010'>0.78751E+02</wgt>
<wgt id='7011'>0.78794E+02</wgt>
<wgt id='7012'>0.78287E+02</wgt>
<wgt id='7013'>0.78361E+02</wgt>
<wgt id='7014'>0.78712E+02</wgt>
<wgt id='7015'>0.78379E+02</wgt>
<wgt id='7016'>0.78500E+02</wgt>
<wgt id='7017'>0.78564E+02</wgt>
<wgt id='7018'>0.78512E+02</wgt>
<wgt id='7019'>0.78338E+02</wgt>
<wgt id='7020'>0.78746E+02</wgt>
<wgt id='7021'>0.78222E+02</wgt>
<wgt id='7022'>0.78807E+02</wgt>
<wgt id='7023'>0.78465E+02</wgt>
<wgt id='7024'>0.78621E+02</wgt>
<wgt id='7025'>0.77973E+02</wgt>
<wgt id='7026'>0.78988E+02</wgt>
<wgt id='7027'>0.78370E+02</wgt>
<wgt id='7028'>0.78772E+02</wgt>
<wgt id='8000'>0.79376E+02</wgt>
<wgt id='8001'>0.79362E+02</wgt>
<wgt id='8002'>0.79400E+02</wgt>
<wgt id='8003'>0.79380E+02</wgt>
<wgt id='8004'>0.79373E+02</wgt>
<wgt id='8005'>0.79213E+02</wgt>
<wgt id='8006'>0.79408E+02</wgt>
<wgt id='8007'>0.79442E+02</wgt>
<wgt id='8008'>0.79547E+02</wgt>
<wgt id='8009'>0.79704E+02</wgt>
<wgt id='8010'>0.79316E+02</wgt>
<wgt id='8011'>0.79367E+02</wgt>
<wgt id='8012'>0.79142E+02</wgt>
<wgt id='8013'>0.79267E+02</wgt>
<wgt id='8014'>0.79480E+02</wgt>
<wgt id='8015'>0.79328E+02</wgt>
<wgt id='8016'>0.79423E+02</wgt>
<wgt id='8017'>0.79393E+02</wgt>
<wgt id='8018'>0.79482E+02</wgt>
<wgt id='8019'>0.79508E+02</wgt>
<wgt id='8020'>0.79175E+02</wgt>
<wgt id='8021'>0.79353E+02</wgt>
<wgt id='8022'>0.79003E+02</wgt>
<wgt id='8023'>0.79406E+02</wgt>
<wgt id='8024'>0.79362E+02</wgt>
<wgt id='8025'>0.79543E+02</wgt>
<wgt id='8026'>0.79528E+02</wgt>
<wgt id='8027'>0.79329E+02</wgt>
<wgt id='8028'>0.79444E+02</wgt>
<wgt id='8029'>0.78874E+02</wgt>
<wgt id='3000'>0.81104E+02</wgt>
<wgt id='3001'>0.79804E+02</wgt>
<wgt id='3002'>0.80598E+02</wgt>
<wgt id='3003'>0.83373E+02</wgt>
<wgt id='3004'>0.81807E+02</wgt>
<wgt id='3005'>0.80898E+02</wgt>
<wgt id='3006'>0.82662E+02</wgt>
<wgt id='3007'>0.80335E+02</wgt>
<wgt id='3008'>0.80060E+02</wgt>
<wgt id='3009'>0.82845E+02</wgt>
<wgt id='3010'>0.82826E+02</wgt>
<wgt id='3011'>0.82721E+02</wgt>
<wgt id='3012'>0.80523E+02</wgt>
<wgt id='3013'>0.80280E+02</wgt>
<wgt id='3014'>0.79686E+02</wgt>
<wgt id='3015'>0.83214E+02</wgt>
<wgt id='3016'>0.83011E+02</wgt>
<wgt id='3017'>0.82807E+02</wgt>
<wgt id='3018'>0.80586E+02</wgt>
<wgt id='3019'>0.80121E+02</wgt>
<wgt id='3020'>0.81339E+02</wgt>
<wgt id='3021'>0.79407E+02</wgt>
<wgt id='3022'>0.79932E+02</wgt>
<wgt id='3023'>0.79887E+02</wgt>
<wgt id='3024'>0.79234E+02</wgt>
<wgt id='3025'>0.79697E+02</wgt>
<wgt id='3026'>0.81052E+02</wgt>
<wgt id='3027'>0.80549E+02</wgt>
<wgt id='3028'>0.80712E+02</wgt>
<wgt id='3029'>0.82583E+02</wgt>
<wgt id='3030'>0.83195E+02</wgt>
<wgt id='3031'>0.81734E+02</wgt>
<wgt id='3032'>0.81850E+02</wgt>
<wgt id='3033'>0.80216E+02</wgt>
<wgt id='3034'>0.79949E+02</wgt>
<wgt id='3035'>0.82901E+02</wgt>
<wgt id='3036'>0.80539E+02</wgt>
<wgt id='3037'>0.81426E+02</wgt>
<wgt id='3038'>0.80815E+02</wgt>
<wgt id='3039'>0.81814E+02</wgt>
<wgt id='3040'>0.80731E+02</wgt>
<wgt id='3041'>0.81707E+02</wgt>
<wgt id='3042'>0.79398E+02</wgt>
<wgt id='3043'>0.80853E+02</wgt>
<wgt id='3044'>0.79989E+02</wgt>
<wgt id='3045'>0.81316E+02</wgt>
<wgt id='3046'>0.81652E+02</wgt>
<wgt id='3047'>0.78632E+02</wgt>
<wgt id='3048'>0.78582E+02</wgt>
<wgt id='3049'>0.82526E+02</wgt>
<wgt id='3050'>0.82397E+02</wgt>
<wgt id='3051'>0.81075E+02</wgt>
<wgt id='3052'>0.79819E+02</wgt>
<wgt id='3053'>0.81048E+02</wgt>
<wgt id='3054'>0.81249E+02</wgt>
<wgt id='3055'>0.78942E+02</wgt>
<wgt id='3056'>0.80428E+02</wgt>
<wgt id='3057'>0.80577E+02</wgt>
<wgt id='3058'>0.79288E+02</wgt>
<wgt id='3059'>0.83854E+02</wgt>
<wgt id='3060'>0.81328E+02</wgt>
<wgt id='3061'>0.81123E+02</wgt>
<wgt id='3062'>0.80677E+02</wgt>
<wgt id='3063'>0.79035E+02</wgt>
<wgt id='3064'>0.80286E+02</wgt>
<wgt id='3065'>0.80472E+02</wgt>
<wgt id='3066'>0.81181E+02</wgt>
<wgt id='3067'>0.78982E+02</wgt>
<wgt id='3068'>0.82493E+02</wgt>
<wgt id='3069'>0.80156E+02</wgt>
<wgt id='3070'>0.78931E+02</wgt>
<wgt id='3071'>0.83456E+02</wgt>
<wgt id='3072'>0.82909E+02</wgt>
<wgt id='3073'>0.82360E+02</wgt>
<wgt id='3074'>0.83515E+02</wgt>
<wgt id='3075'>0.82536E+02</wgt>
<wgt id='3076'>0.83246E+02</wgt>
<wgt id='3077'>0.79852E+02</wgt>
<wgt id='3078'>0.82508E+02</wgt>
<wgt id='3079'>0.81316E+02</wgt>
<wgt id='3080'>0.80028E+02</wgt>
<wgt id='3081'>0.78667E+02</wgt>
<wgt id='3082'>0.83011E+02</wgt>
<wgt id='3083'>0.80818E+02</wgt>
<wgt id='3084'>0.81380E+02</wgt>
<wgt id='3085'>0.83937E+02</wgt>
<wgt id='3086'>0.78208E+02</wgt>
<wgt id='3087'>0.82373E+02</wgt>
<wgt id='3088'>0.81798E+02</wgt>
<wgt id='3089'>0.84142E+02</wgt>
<wgt id='3090'>0.79899E+02</wgt>
<wgt id='3091'>0.80028E+02</wgt>
<wgt id='3092'>0.82862E+02</wgt>
<wgt id='3093'>0.82270E+02</wgt>
<wgt id='3094'>0.80727E+02</wgt>
<wgt id='3095'>0.80110E+02</wgt>
<wgt id='3096'>0.80512E+02</wgt>
<wgt id='3097'>0.79302E+02</wgt>
<wgt id='3098'>0.81851E+02</wgt>
<wgt id='3099'>0.80594E+02</wgt>
<wgt id='3100'>0.80948E+02</wgt>
<wgt id='3200'>0.78999E+02</wgt>
<wgt id='3201'>0.79183E+02</wgt>
<wgt id='3202'>0.78325E+02</wgt>
<wgt id='3203'>0.78536E+02</wgt>
<wgt id='3204'>0.78604E+02</wgt>
<wgt id='3205'>0.79537E+02</wgt>
<wgt id='3206'>0.79176E+02</wgt>
<wgt id='3207'>0.79476E+02</wgt>
<wgt id='3208'>0.79355E+02</wgt>
<wgt id='3209'>0.78910E+02</wgt>
<wgt id='3210'>0.78976E+02</wgt>
<wgt id='3211'>0.80317E+02</wgt>
<wgt id='3212'>0.78107E+02</wgt>
<wgt id='3213'>0.78304E+02</wgt>
<wgt id='3214'>0.77772E+02</wgt>
<wgt id='3215'>0.78943E+02</wgt>
<wgt id='3216'>0.79042E+02</wgt>
<wgt id='3217'>0.79277E+02</wgt>
<wgt id='3218'>0.79045E+02</wgt>
<wgt id='3219'>0.79369E+02</wgt>
<wgt id='3220'>0.78031E+02</wgt>
<wgt id='3221'>0.79738E+02</wgt>
<wgt id='3222'>0.79405E+02</wgt>
<wgt id='3223'>0.79111E+02</wgt>
<wgt id='3224'>0.78515E+02</wgt>
<wgt id='3225'>0.79308E+02</wgt>
<wgt id='3226'>0.78913E+02</wgt>
<wgt id='3227'>0.78182E+02</wgt>
<wgt id='3228'>0.78305E+02</wgt>
<wgt id='3229'>0.79408E+02</wgt>
<wgt id='3230'>0.79544E+02</wgt>
<wgt id='3231'>0.79287E+02</wgt>
<wgt id='3232'>0.79484E+02</wgt>
<wgt id='3233'>0.78995E+02</wgt>
<wgt id='3234'>0.79526E+02</wgt>
<wgt id='3235'>0.78483E+02</wgt>
<wgt id='3236'>0.78528E+02</wgt>
<wgt id='3237'>0.78611E+02</wgt>
<wgt id='3238'>0.79030E+02</wgt>
<wgt id='3239'>0.78616E+02</wgt>
<wgt id='3240'>0.79555E+02</wgt>
<wgt id='3241'>0.79661E+02</wgt>
<wgt id='3242'>0.78163E+02</wgt>
<wgt id='3243'>0.78236E+02</wgt>
<wgt id='3244'>0.78727E+02</wgt>
<wgt id='3245'>0.79715E+02</wgt>
<wgt id='3246'>0.78697E+02</wgt>
<wgt id='3247'>0.78571E+02</wgt>
<wgt id='3248'>0.78627E+02</wgt>
<wgt id='3249'>0.79102E+02</wgt>
<wgt id='3250'>0.79564E+02</wgt>
<wgt id='3251'>0.79162E+02</wgt>
<wgt id='3252'>0.78931E+02</wgt>
<wgt id='3253'>0.79243E+02</wgt>
<wgt id='3254'>0.79282E+02</wgt>
<wgt id='3255'>0.79029E+02</wgt>
<wgt id='3256'>0.77897E+02</wgt>
<wgt id='3257'>0.78922E+02</wgt>
<wgt id='3258'>0.79569E+02</wgt>
<wgt id='3259'>0.79055E+02</wgt>
<wgt id='3260'>0.78668E+02</wgt>
<wgt id='3261'>0.79154E+02</wgt>
<wgt id='3262'>0.78457E+02</wgt>
<wgt id='3263'>0.78589E+02</wgt>
<wgt id='3264'>0.79582E+02</wgt>
<wgt id='3265'>0.79930E+02</wgt>
<wgt id='3266'>0.78611E+02</wgt>
<wgt id='3267'>0.79074E+02</wgt>
<wgt id='3268'>0.80164E+02</wgt>
<wgt id='3269'>0.79117E+02</wgt>
<wgt id='3270'>0.79282E+02</wgt>
<wgt id='3271'>0.79161E+02</wgt>
<wgt id='3272'>0.79548E+02</wgt>
<wgt id='3273'>0.79256E+02</wgt>
<wgt id='3274'>0.79553E+02</wgt>
<wgt id='3275'>0.79009E+02</wgt>
<wgt id='3276'>0.79250E+02</wgt>
<wgt id='3277'>0.78473E+02</wgt>
<wgt id='3278'>0.78962E+02</wgt>
<wgt id='3279'>0.79434E+02</wgt>
<wgt id='3280'>0.78743E+02</wgt>
<wgt id='3281'>0.79082E+02</wgt>
<wgt id='3282'>0.79484E+02</wgt>
<wgt id='3283'>0.79031E+02</wgt>
<wgt id='3284'>0.78873E+02</wgt>
<wgt id='3285'>0.78345E+02</wgt>
<wgt id='3286'>0.79278E+02</wgt>
<wgt id='3287'>0.78436E+02</wgt>
<wgt id='3288'>0.79712E+02</wgt>
<wgt id='3289'>0.80578E+02</wgt>
<wgt id='3290'>0.80059E+02</wgt>
<wgt id='3291'>0.77894E+02</wgt>
<wgt id='3292'>0.77611E+02</wgt>
<wgt id='3293'>0.78376E+02</wgt>
<wgt id='3294'>0.77924E+02</wgt>
<wgt id='3295'>0.78241E+02</wgt>
<wgt id='3296'>0.80123E+02</wgt>
<wgt id='3297'>0.78948E+02</wgt>
<wgt id='3298'>0.79300E+02</wgt>
<wgt id='3299'>0.78394E+02</wgt>
<wgt id='3300'>0.79299E+02</wgt>
<wgt id='3301'>0.77619E+02</wgt>
<wgt id='3302'>0.80339E+02</wgt>
<wgt id='3400'>0.78836E+02</wgt>
<wgt id='3401'>0.78809E+02</wgt>
<wgt id='3402'>0.78798E+02</wgt>
<wgt id='3403'>0.79908E+02</wgt>
<wgt id='3404'>0.80245E+02</wgt>
<wgt id='3405'>0.79370E+02</wgt>
<wgt id='3406'>0.79046E+02</wgt>
<wgt id='3407'>0.78513E+02</wgt>
<wgt id='3408'>0.80625E+02</wgt>
<wgt id='3409'>0.79719E+02</wgt>
<wgt id='3410'>0.78297E+02</wgt>
<wgt id='3411'>0.79560E+02</wgt>
<wgt id='3412'>0.79830E+02</wgt>
<wgt id='3413'>0.78717E+02</wgt>
<wgt id='3414'>0.78463E+02</wgt>
<wgt id='3415'>0.78849E+02</wgt>
<wgt id='3416'>0.78178E+02</wgt>
<wgt id='3417'>0.79449E+02</wgt>
<wgt id='3418'>0.78337E+02</wgt>
<wgt id='3419'>0.78632E+02</wgt>
<wgt id='3420'>0.79402E+02</wgt>
<wgt id='3421'>0.79037E+02</wgt>
<wgt id='3422'>0.80005E+02</wgt>
<wgt id='3423'>0.79261E+02</wgt>
<wgt id='3424'>0.79137E+02</wgt>
<wgt id='3425'>0.78251E+02</wgt>
<wgt id='3426'>0.79633E+02</wgt>
<wgt id='3427'>0.78801E+02</wgt>
<wgt id='3428'>0.80132E+02</wgt>
<wgt id='3429'>0.78239E+02</wgt>
<wgt id='3430'>0.79615E+02</wgt>
<wgt id='3431'>0.79207E+02</wgt>
<wgt id='3432'>0.79139E+02</wgt>
<wgt id='3433'>0.77261E+02</wgt>
<wgt id='3434'>0.78497E+02</wgt>
<wgt id='3435'>0.78530E+02</wgt>
<wgt id='3436'>0.79103E+02</wgt>
<wgt id='3437'>0.79146E+02</wgt>
<wgt id='3438'>0.78108E+02</wgt>
<wgt id='3439'>0.79465E+02</wgt>
<wgt id='3440'>0.78800E+02</wgt>
<wgt id='3441'>0.78676E+02</wgt>
<wgt id='3442'>0.77017E+02</wgt>
<wgt id='3443'>0.78555E+02</wgt>
<wgt id='3444'>0.78402E+02</wgt>
<wgt id='3445'>0.78404E+02</wgt>
<wgt id='3446'>0.79072E+02</wgt>
<wgt id='3447'>0.80704E+02</wgt>
<wgt id='3448'>0.79437E+02</wgt>
<wgt id='3449'>0.79151E+02</wgt>
<wgt id='3450'>0.78576E+02</wgt>
<wgt id='3451'>0.80366E+02</wgt>
<wgt id='3452'>0.78441E+02</wgt>
<wgt id='3453'>0.78558E+02</wgt>
<wgt id='3454'>0.77750E+02</wgt>
<wgt id='3455'>0.79955E+02</wgt>
<wgt id='3456'>0.79274E+02</wgt>
<wgt id='3457'>0.79238E+02</wgt>
<wgt id='3458'>0.78837E+02</wgt>
<wgt id='3459'>0.78410E+02</wgt>
<wgt id='3460'>0.78386E+02</wgt>
<wgt id='3461'>0.78180E+02</wgt>
<wgt id='3462'>0.77981E+02</wgt>
<wgt id='3463'>0.77806E+02</wgt>
<wgt id='3464'>0.79473E+02</wgt>
<wgt id='3465'>0.78278E+02</wgt>
<wgt id='3466'>0.78931E+02</wgt>
<wgt id='3467'>0.78701E+02</wgt>
<wgt id='3468'>0.77187E+02</wgt>
<wgt id='3469'>0.78924E+02</wgt>
<wgt id='3470'>0.79143E+02</wgt>
<wgt id='3471'>0.78970E+02</wgt>
<wgt id='3472'>0.78362E+02</wgt>
<wgt id='3473'>0.79014E+02</wgt>
<wgt id='3474'>0.78574E+02</wgt>
<wgt id='3475'>0.78488E+02</wgt>
<wgt id='3476'>0.79448E+02</wgt>
<wgt id='3477'>0.77705E+02</wgt>
<wgt id='3478'>0.78717E+02</wgt>
<wgt id='3479'>0.80343E+02</wgt>
<wgt id='3480'>0.78321E+02</wgt>
<wgt id='3481'>0.79354E+02</wgt>
<wgt id='3482'>0.77906E+02</wgt>
<wgt id='3483'>0.77201E+02</wgt>
<wgt id='3484'>0.78484E+02</wgt>
<wgt id='3485'>0.78715E+02</wgt>
<wgt id='3486'>0.77428E+02</wgt>
<wgt id='3487'>0.78768E+02</wgt>
<wgt id='3488'>0.80176E+02</wgt>
<wgt id='3489'>0.77956E+02</wgt>
<wgt id='3490'>0.78554E+02</wgt>
<wgt id='3491'>0.79216E+02</wgt>
<wgt id='3492'>0.79333E+02</wgt>
<wgt id='3493'>0.78397E+02</wgt>
<wgt id='3494'>0.77558E+02</wgt>
<wgt id='3495'>0.78900E+02</wgt>
<wgt id='3496'>0.77626E+02</wgt>
<wgt id='3497'>0.78077E+02</wgt>
<wgt id='3498'>0.79433E+02</wgt>
<wgt id='3499'>0.78989E+02</wgt>
<wgt id='3500'>0.79848E+02</wgt>
</rwgt>
</event>
<event>
     13 322200  8.11039E+01  1.43274E+01 -1.00000E+00  1.75907E-01
      21    -1     0     0   504   505  0.000000000E+00  0.000000000E+00  1.802367172E+02  1.802367172E+02  0.000000000E+00  0.00000E+00  9.000E+00
      21    -1     0     0   502   503  0.000000000E+00  0.000000000E+00 -8.476389526E+02  8.476389526E+02  0.000000000E+00  0.00000E+00  9.000E+00
       6     2     1     2   502     0 -3.812941152E+01  7.767633061E+01 -5.955383202E+02  6.259342358E+02  1.721636206E+02  0.00000E+00  9.000E+00
      -6     2     1     2     0   505  5.242267354E+01 -7.866550451E+01 -1.956006939E+02  2.773779312E+02  1.724601025E+02  0.00000E+00  9.000E+00
      21     1     1     2   504   503 -1.429326202E+01  9.891738997E-01  1.237367788E+02  1.245635028E+02  1.907348633E-06  0.00000E+00  9.000E+00
      24     2     3     3     0     0  1.493504819E+01  8.881071272E+01 -2.689100117E+02  2.947976070E+02  8.051482077E+01  0.00000E+00  9.000E+00
       5     1     3     3   502     0 -5.306445971E+01 -1.113438211E+01 -3.266283085E+02  3.311366287E+02  5.060000000E+00  0.00000E+00 -1.000E+00
     -24     2     4     4     0     0  4.541672248E+01 -2.833057580E+01 -2.036683627E+02  2.256731996E+02  8.113131857E+01  0.00000E+00  9.000E+00
      -5     1     4     4     0   505  7.005951061E+00 -5.033492870E+01  8.067668708E+00  5.170473166E+01  5.060000000E+00  0.00000E+00  1.000E+00
     -11     1     6     6     0     0  1.303176173E+01  1.537595301E+01 -4.878544376E+00  2.073757316E+01  5.100000000E-04  0.00000E+00  1.000E+00
      12     1     6     6     0     0  1.903286462E+00  7.343475970E+01 -2.640314673E+02  2.740600339E+02  0.000000000E+00  0.00000E+00 -1.000E+00
      13     1     8     8     0     0  1.556343133E+01 -4.601468345E+00  2.132188950E+00  1.636921831E+01  1.057000000E-01  0.00000E+00 -1.000E+00
     -14     1     8     8     0     0  2.985329115E+01 -2.372910746E+01 -2.058005516E+02  2.093039813E+02  0.000000000E+00  0.00000E+00  1.000E+00
#rwgt            1           1   638.49335432125520               10       37928           0
<rwgt>
<wgt id='1001'>0.81104E+02</wgt>
<wgt id='1002'>0.97081E+02</wgt>
<wgt id='1003'>0.63693E+02</wgt>
<wgt id='1004'>0.71875E+02</wgt>
<wgt id='1005'>0.83628E+02</wgt>
<wgt id='1006'>0.59020E+02</wgt>
<wgt id='1007'>0.91747E+02</wgt>
<wgt id='1008'>0.11402E+03</wgt>
<wgt id='1009'>0.67555E+02</wgt>
<wgt id='2000'>0.81104E+02</wgt>
<wgt id='2001'>0.80910E+02</wgt>
<wgt id='2002'>0.80982E+02</wgt>
<wgt id='2003'>0.81287E+02</wgt>
<wgt id='2004'>0.81381E+02</wgt>
<wgt id='2005'>0.80955E+02</wgt>
<wgt id='2006'>0.81356E+02</wgt>
<wgt id='2007'>0.81287E+02</wgt>
<wgt id='2008'>0.81156E+02</wgt>
<wgt id='2009'>0.81321E+02</wgt>
<wgt id='2010'>0.81095E+02</wgt>
<wgt id='2011'>0.81166E+02</wgt>
<wgt id='2012'>0.81281E+02</wgt>
<wgt id='2013'>0.81084E+02</wgt>
<wgt id='2014'>0.81078E+02</wgt>
<wgt id='2015'>0.81036E+02</wgt>
<wgt id='2016'>0.81105E+02</wgt>
<wgt id='2017'>0.81127E+02</wgt>
<wgt id='2018'>0.81061E+02</wgt>
<wgt id='2019'>0.80439E+02</wgt>
<wgt id='2020'>0.81104E+02</wgt>
<wgt id='2021'>0.81138E+02</wgt>
<wgt id='2022'>0.80980E+02</wgt>
<wgt id='2023'>0.81334E+02</wgt>
<wgt id='2024'>0.80589E+02</wgt>
<wgt id='2025'>0.81367E+02</wgt>
<wgt id='2026'>0.81093E+02</wgt>
<wgt id='2027'>0.81302E+02</wgt>
<wgt id='2028'>0.81122E+02</wgt>
<wgt id='2029'>0.81014E+02</wgt>
<wgt id='2030'>0.81163E+02</wgt>
<wgt id='2031'>0.80709E+02</wgt>
<wgt id='2032'>0.80958E+02</wgt>
<wgt id='2033'>0.80957E+02</wgt>
<wgt id='2034'>0.80806E+02</wgt>
<wgt id='2035'>0.81219E+02</wgt>
<wgt id='2036'>0.81291E+02</wgt>
<wgt id='2037'>0.80994E+02</wgt>
<wgt id='2038'>0.80989E+02</wgt>
<wgt id='2039'>0.81039E+02</wgt>
<wgt id='2040'>0.80976E+02</wgt>
<wgt id='2041'>0.81062E+02</wgt>
<wgt id='2042'>0.81241E+02</wgt>
<wgt id='2043'>0.81112E+02</wgt>
<wgt id='2044'>0.81125E+02</wgt>
<wgt id='2045'>0.81088E+02</wgt>
<wgt id='2046'>0.81039E+02</wgt>
<wgt id='2047'>0.81112E+02</wgt>
<wgt id='2048'>0.81043E+02</wgt>
<wgt id='2049'>0.81019E+02</wgt>
<wgt id='2050'>0.81020E+02</wgt>
<wgt id='2051'>0.81044E+02</wgt>
<wgt id='2052'>0.81219E+02</wgt>
<wgt id='2053'>0.81073E+02</wgt>
<wgt id='2054'>0.81069E+02</wgt>
<wgt id='2055'>0.81091E+02</wgt>
<wgt id='2056'>0.81045E+02</wgt>
<wgt id='2057'>0.81143E+02</wgt>
<wgt id='2058'>0.81146E+02</wgt>
<wgt id='2059'>0.81079E+02</wgt>
<wgt id='2060'>0.81100E+02</wgt>
<wgt id='2061'>0.81061E+02</wgt>
<wgt id='2062'>0.81199E+02</wgt>
<wgt id='2063'>0.81127E+02</wgt>
<wgt id='2064'>0.81114E+02</wgt>
<wgt id='2065'>0.81177E+02</wgt>
<wgt id='2066'>0.81071E+02</wgt>
<wgt id='2067'>0.81088E+02</wgt>
<wgt id='2068'>0.81149E+02</wgt>
<wgt id='2069'>0.81100E+02</wgt>
<wgt id='2070'>0.81116E+02</wgt>
<wgt id='2071'>0.81102E+02</wgt>
<wgt id='2072'>0.81081E+02</wgt>
<wgt id='2073'>0.81120E+02</wgt>
<wgt id='2074'>0.81083E+02</wgt>
<wgt id='2075'>0.81087E+02</wgt>
<wgt id='2076'>0.81092E+02</wgt>
<wgt id='2077'>0.81155E+02</wgt>
<wgt id='2078'>0.81115E+02</wgt>
<wgt id='2079'>0.81085E+02</wgt>
<wgt id='2080'>0.81119E+02</wgt>
<wgt id='2081'>0.81092E+02</wgt>
<wgt id='2082'>0.81115E+02</wgt>
<wgt id='2083'>0.81147E+02</wgt>
<wgt id='2084'>0.81096E+02</wgt>
<wgt id='2085'>0.81111E+02</wgt>
<wgt id='2086'>0.81088E+02</wgt>
<wgt id='2087'>0.81116E+02</wgt>
<wgt id='2088'>0.81096E+02</wgt>
<wgt id='2089'>0.81088E+02</wgt>
<wgt id='2090'>0.81125E+02</wgt>
<wgt id='2091'>0.81112E+02</wgt>
<wgt id='2092'>0.81138E+02</wgt>
<wgt id='2093'>0.81081E+02</wgt>
<wgt id='2094'>0.81109E+02</wgt>
<wgt id='2095'>0.81129E+02</wgt>
<wgt id='2096'>0.81088E+02</wgt>
<wgt id='2097'>0.81122E+02</wgt>
<wgt id='2098'>0.81102E+02</wgt>
<wgt id='2099'>0.81119E+02</wgt>
<wgt id='2100'>0.81104E+02</wgt>
<wgt id='2101'>0.79445E+02</wgt>
<wgt id='2102'>0.83191E+02</wgt>
<wgt id='2200'>0.81073E+02</wgt>
<wgt id='2201'>0.71072E+02</wgt>
<wgt id='2202'>0.73096E+02</wgt>
<wgt id='2203'>0.75089E+02</wgt>
<wgt id='2204'>0.76747E+02</wgt>
<wgt id='2205'>0.80068E+02</wgt>
<wgt id='2206'>0.82335E+02</wgt>
<wgt id='2207'>0.85329E+02</wgt>
<wgt id='2208'>0.87617E+02</wgt>
<wgt id='2300'>0.85923E+02</wgt>
<wgt id='2301'>0.86082E+02</wgt>
<wgt id='2302'>0.85797E+02</wgt>
<wgt id='2303'>0.85901E+02</wgt>
<wgt id='2304'>0.86178E+02</wgt>
<wgt id='2305'>0.85971E+02</wgt>
<wgt id='2306'>0.85917E+02</wgt>
<wgt id='2307'>0.85893E+02</wgt>
<wgt id='2308'>0.85815E+02</wgt>
<wgt id='2309'>0.85817E+02</wgt>
<wgt id='2310'>0.85664E+02</wgt>
<wgt id='2311'>0.85938E+02</wgt>
<wgt id='2312'>0.86105E+02</wgt>
<wgt id='2313'>0.85817E+02</wgt>
<wgt id='2314'>0.85882E+02</wgt>
<wgt id='2315'>0.85930E+02</wgt>
<wgt id='2316'>0.86002E+02</wgt>
<wgt id='2317'>0.85912E+02</wgt>
<wgt id='2318'>0.85904E+02</wgt>
<wgt id='2319'>0.86006E+02</wgt>
<wgt id='2320'>0.86167E+02</wgt>
<wgt id='2321'>0.86157E+02</wgt>
<wgt id='2322'>0.85874E+02</wgt>
<wgt id='2323'>0.85913E+02</wgt>
<wgt id='2324'>0.86052E+02</wgt>
<wgt id='2325'>0.85966E+02</wgt>
<wgt id='2326'>0.85688E+02</wgt>
<wgt id='2327'>0.86015E+02</wgt>
<wgt id='2328'>0.86019E+02</wgt>
<wgt id='2329'>0.85817E+02</wgt>
<wgt id='2330'>0.86371E+02</wgt>
<wgt id='2331'>0.86145E+02</wgt>
<wgt id='2332'>0.85645E+02</wgt>
<wgt id='2333'>0.85668E+02</wgt>
<wgt id='2334'>0.85864E+02</wgt>
<wgt id='2335'>0.85539E+02</wgt>
<wgt id='2336'>0.86019E+02</wgt>
<wgt id='2337'>0.86227E+02</wgt>
<wgt id='2338'>0.85969E+02</wgt>
<wgt id='2339'>0.86110E+02</wgt>
<wgt id='2340'>0.86240E+02</wgt>
<wgt id='2341'>0.86017E+02</wgt>
<wgt id='2342'>0.85563E+02</wgt>
<wgt id='2343'>0.85578E+02</wgt>
<wgt id='2344'>0.86079E+02</wgt>
<wgt id='2345'>0.86075E+02</wgt>
<wgt id='2346'>0.86167E+02</wgt>
<wgt id='2347'>0.85813E+02</wgt>
<wgt id='2348'>0.86159E+02</wgt>
<wgt id='2349'>0.85875E+02</wgt>
<wgt id='2350'>0.85804E+02</wgt>
<wgt id='2351'>0.86153E+02</wgt>
<wgt id='2352'>0.85820E+02</wgt>
<wgt id='2353'>0.85846E+02</wgt>
<wgt id='2354'>0.85912E+02</wgt>
<wgt id='2355'>0.85859E+02</wgt>
<wgt id='2356'>0.85906E+02</wgt>
<wgt id='2357'>0.85822E+02</wgt>
<wgt id='2358'>0.85902E+02</wgt>
<wgt id='2359'>0.85850E+02</wgt>
<wgt id='2360'>0.85972E+02</wgt>
<wgt id='2361'>0.85844E+02</wgt>
<wgt id='2362'>0.85941E+02</wgt>
<wgt id='2363'>0.85924E+02</wgt>
<wgt id='2364'>0.85874E+02</wgt>
<wgt id='2365'>0.85876E+02</wgt>
<wgt id='2366'>0.85941E+02</wgt>
<wgt id='2367'>0.85829E+02</wgt>
<wgt id='2368'>0.85953E+02</wgt>
<wgt id='2369'>0.85884E+02</wgt>
<wgt id='2370'>0.85925E+02</wgt>
<wgt id='2371'>0.85899E+02</wgt>
<wgt id='2372'>0.85903E+02</wgt>
<wgt id='2373'>0.85885E+02</wgt>
<wgt id='2374'>0.85994E+02</wgt>
<wgt id='2375'>0.85917E+02</wgt>
<wgt id='2376'>0.85940E+02</wgt>
<wgt id='2377'>0.85954E+02</wgt>
<wgt id='2378'>0.85947E+02</wgt>
<wgt id='2379'>0.85897E+02</wgt>
<wgt id='2380'>0.85896E+02</wgt>
<wgt id='2381'>0.85915E+02</wgt>
<wgt id='2382'>0.85915E+02</wgt>
<wgt id='2383'>0.85880E+02</wgt>
<wgt id='2384'>0.85874E+02</wgt>
<wgt id='2385'>0.85980E+02</wgt>
<wgt id='2386'>0.85854E+02</wgt>
<wgt id='2387'>0.85877E+02</wgt>
<wgt id='2388'>0.85898E+02</wgt>
<wgt id='2389'>0.85915E+02</wgt>
<wgt id='2390'>0.85962E+02</wgt>
<wgt id='2391'>0.85951E+02</wgt>
<wgt id='2392'>0.85920E+02</wgt>
<wgt id='2393'>0.85925E+02</wgt>
<wgt id='2394'>0.85968E+02</wgt>
<wgt id='2395'>0.85920E+02</wgt>
<wgt id='2396'>0.85919E+02</wgt>
<wgt id='2397'>0.85907E+02</wgt>
<wgt id='2398'>0.85899E+02</wgt>
<wgt id='2399'>0.85931E+02</wgt>
<wgt id='2400'>0.85947E+02</wgt>
<wgt id='2401'>0.83879E+02</wgt>
<wgt id='2402'>0.88296E+02</wgt>
<wgt id='2500'>0.82204E+02</wgt>
<wgt id='2501'>0.86966E+02</wgt>
<wgt id='2600'>0.79249E+02</wgt>
<wgt id='2601'>0.78980E+02</wgt>
<wgt id='2602'>0.79406E+02</wgt>
<wgt id='2603'>0.79240E+02</wgt>
<wgt id='2604'>0.79363E+02</wgt>
<wgt id='2605'>0.79172E+02</wgt>
<wgt id='2606'>0.79301E+02</wgt>
<wgt id='2607'>0.79298E+02</wgt>
<wgt id='2608'>0.79374E+02</wgt>
<wgt id='2609'>0.79191E+02</wgt>
<wgt id='2610'>0.79194E+02</wgt>
<wgt id='2611'>0.79233E+02</wgt>
<wgt id='2612'>0.79225E+02</wgt>
<wgt id='2613'>0.79257E+02</wgt>
<wgt id='2614'>0.79176E+02</wgt>
<wgt id='2615'>0.79076E+02</wgt>
<wgt id='2616'>0.79296E+02</wgt>
<wgt id='2617'>0.79056E+02</wgt>
<wgt id='2618'>0.79235E+02</wgt>
<wgt id='2619'>0.79322E+02</wgt>
<wgt id='2620'>0.79108E+02</wgt>
<wgt id='2621'>0.79366E+02</wgt>
<wgt id='2622'>0.79627E+02</wgt>
<wgt id='2623'>0.79227E+02</wgt>
<wgt id='2624'>0.79211E+02</wgt>
<wgt id='2625'>0.79311E+02</wgt>
<wgt id='2626'>0.79265E+02</wgt>
<wgt id='2627'>0.79344E+02</wgt>
<wgt id='2628'>0.79226E+02</wgt>
<wgt id='2629'>0.79315E+02</wgt>
<wgt id='2630'>0.79416E+02</wgt>
<wgt id='2631'>0.79085E+02</wgt>
<wgt id='2632'>0.79169E+02</wgt>
<wgt id='2633'>0.79166E+02</wgt>
<wgt id='2634'>0.79085E+02</wgt>
<wgt id='2635'>0.79163E+02</wgt>
<wgt id='2636'>0.79279E+02</wgt>
<wgt id='2637'>0.79267E+02</wgt>
<wgt id='2638'>0.79232E+02</wgt>
<wgt id='2639'>0.79263E+02</wgt>
<wgt id='2640'>0.79222E+02</wgt>
<wgt id='2641'>0.79244E+02</wgt>
<wgt id='2642'>0.79258E+02</wgt>
<wgt id='2643'>0.79192E+02</wgt>
<wgt id='2644'>0.79247E+02</wgt>
<wgt id='2645'>0.79234E+02</wgt>
<wgt id='2646'>0.79315E+02</wgt>
<wgt id='2647'>0.79223E+02</wgt>
<wgt id='2648'>0.79226E+02</wgt>
<wgt id='2649'>0.79244E+02</wgt>
<wgt id='2650'>0.79260E+02</wgt>
<wgt id='2651'>0.77910E+02</wgt>
<wgt id='2652'>0.80297E+02</wgt>
<wgt id='2700'>0.76803E+02</wgt>
<wgt id='2701'>0.77910E+02</wgt>
<wgt id='2702'>0.78650E+02</wgt>
<wgt id='2703'>0.79845E+02</wgt>
<wgt id='2704'>0.80297E+02</wgt>
<wgt id='2705'>0.81601E+02</wgt>
<wgt id='2800'>0.80887E+02</wgt>
<wgt id='4000'>0.82256E+02</wgt>
<wgt id='4001'>0.82484E+02</wgt>
<wgt id='4002'>0.82223E+02</wgt>
<wgt id='4003'>0.81837E+02</wgt>
<wgt id='4004'>0.82714E+02</wgt>
<wgt id='4005'>0.82360E+02</wgt>
<wgt id='4006'>0.82292E+02</wgt>
<wgt id='4007'>0.82784E+02</wgt>
<wgt id='4008'>0.81773E+02</wgt>
<wgt id='4009'>0.81909E+02</wgt>
<wgt id='4010'>0.82342E+02</wgt>
<wgt id='4011'>0.82770E+02</wgt>
<wgt id='4012'>0.81667E+02</wgt>
<wgt id='4013'>0.82349E+02</wgt>
<wgt id='4014'>0.82274E+02</wgt>
<wgt id='4015'>0.82188E+02</wgt>
<wgt id='4016'>0.83011E+02</wgt>
<wgt id='4017'>0.82287E+02</wgt>
<wgt id='4018'>0.82248E+02</wgt>
<wgt id='4019'>0.82329E+02</wgt>
<wgt id='4020'>0.82207E+02</wgt>
<wgt id='4021'>0.82439E+02</wgt>
<wgt id='4022'>0.81929E+02</wgt>
<wgt id='4023'>0.82525E+02</wgt>
<wgt id='4024'>0.82505E+02</wgt>
<wgt id='4025'>0.82265E+02</wgt>
<wgt id='4026'>0.82359E+02</wgt>
<wgt id='4027'>0.82776E+02</wgt>
<wgt id='4028'>0.81815E+02</wgt>
<wgt id='4029'>0.83053E+02</wgt>
<wgt id='4030'>0.81283E+02</wgt>
<wgt id='4031'>0.82068E+02</wgt>
<wgt id='4032'>0.83332E+02</wgt>
<wgt id='4033'>0.82823E+02</wgt>
<wgt id='4034'>0.81618E+02</wgt>
<wgt id='4035'>0.82687E+02</wgt>
<wgt id='4036'>0.81914E+02</wgt>
<wgt id='4037'>0.84465E+02</wgt>
<wgt id='4038'>0.80599E+02</wgt>
<wgt id='4039'>0.83883E+02</wgt>
<wgt id='4040'>0.80729E+02</wgt>
<wgt id='4041'>0.82739E+02</wgt>
<wgt id='4042'>0.81718E+02</wgt>
<wgt id='4043'>0.82224E+02</wgt>
<wgt id='4044'>0.81511E+02</wgt>
<wgt id='4045'>0.82626E+02</wgt>
<wgt id='4046'>0.82063E+02</wgt>
<wgt id='4047'>0.82418E+02</wgt>
<wgt id='4048'>0.82346E+02</wgt>
<wgt id='4049'>0.82351E+02</wgt>
<wgt id='4050'>0.82182E+02</wgt>
<wgt id='4051'>0.82756E+02</wgt>
<wgt id='4052'>0.81979E+02</wgt>
<wgt id='4053'>0.82074E+02</wgt>
<wgt id='4054'>0.81888E+02</wgt>
<wgt id='4055'>0.82623E+02</wgt>
<wgt id='4056'>0.81875E+02</wgt>
<wgt id='4057'>0.81604E+02</wgt>
<wgt id='4058'>0.82717E+02</wgt>
<wgt id='4100'>0.82820E+02</wgt>
<wgt id='4101'>0.82512E+02</wgt>
<wgt id='4102'>0.82040E+02</wgt>
<wgt id='4103'>0.81843E+02</wgt>
<wgt id='4200'>0.80566E+02</wgt>
<wgt id='4201'>0.80504E+02</wgt>
<wgt id='4202'>0.80773E+02</wgt>
<wgt id='4203'>0.80195E+02</wgt>
<wgt id='4204'>0.80767E+02</wgt>
<wgt id='4205'>0.80525E+02</wgt>
<wgt id='4206'>0.80768E+02</wgt>
<wgt id='4207'>0.81029E+02</wgt>
<wgt id='4208'>0.80253E+02</wgt>
<wgt id='4209'>0.80348E+02</wgt>
<wgt id='4210'>0.80745E+02</wgt>
<wgt id='4211'>0.81214E+02</wgt>
<wgt id='4212'>0.80055E+02</wgt>
<wgt id='4213'>0.80735E+02</wgt>
<wgt id='4214'>0.80280E+02</wgt>
<wgt id='4215'>0.80507E+02</wgt>
<wgt id='4216'>0.80716E+02</wgt>
<wgt id='4217'>0.80484E+02</wgt>
<wgt id='4218'>0.80587E+02</wgt>
<wgt id='4219'>0.80126E+02</wgt>
<wgt id='4220'>0.81007E+02</wgt>
<wgt id='4221'>0.80101E+02</wgt>
<wgt id='4222'>0.81235E+02</wgt>
<wgt id='4223'>0.79907E+02</wgt>
<wgt id='4224'>0.80429E+02</wgt>
<wgt id='4225'>0.79698E+02</wgt>
<wgt id='4226'>0.81604E+02</wgt>
<wgt id='4227'>0.81102E+02</wgt>
<wgt id='4228'>0.80109E+02</wgt>
<wgt id='4229'>0.79391E+02</wgt>
<wgt id='4230'>0.81509E+02</wgt>
<wgt id='4231'>0.80714E+02</wgt>
<wgt id='4232'>0.80273E+02</wgt>
<wgt id='4233'>0.80633E+02</wgt>
<wgt id='4234'>0.80067E+02</wgt>
<wgt id='4235'>0.81280E+02</wgt>
<wgt id='4236'>0.79844E+02</wgt>
<wgt id='4237'>0.81618E+02</wgt>
<wgt id='4238'>0.79062E+02</wgt>
<wgt id='4239'>0.80230E+02</wgt>
<wgt id='4240'>0.80388E+02</wgt>
<wgt id='4241'>0.80563E+02</wgt>
<wgt id='4242'>0.80543E+02</wgt>
<wgt id='4243'>0.80814E+02</wgt>
<wgt id='4244'>0.80412E+02</wgt>
<wgt id='4245'>0.80406E+02</wgt>
<wgt id='4246'>0.80469E+02</wgt>
<wgt id='4247'>0.80036E+02</wgt>
<wgt id='4248'>0.80828E+02</wgt>
<wgt id='4249'>0.81544E+02</wgt>
<wgt id='4250'>0.79391E+02</wgt>
<wgt id='4251'>0.80890E+02</wgt>
<wgt id='4252'>0.80281E+02</wgt>
<wgt id='4253'>0.80641E+02</wgt>
<wgt id='4254'>0.80250E+02</wgt>
<wgt id='4255'>0.81747E+02</wgt>
<wgt id='4256'>0.79899E+02</wgt>
<wgt id='4257'>0.79170E+02</wgt>
<wgt id='4258'>0.80976E+02</wgt>
<wgt id='4300'>0.81345E+02</wgt>
<wgt id='4301'>0.82049E+02</wgt>
<wgt id='5000'>0.82442E+02</wgt>
<wgt id='5001'>0.82483E+02</wgt>
<wgt id='5002'>0.82388E+02</wgt>
<wgt id='5003'>0.82459E+02</wgt>
<wgt id='5004'>0.82426E+02</wgt>
<wgt id='5005'>0.82451E+02</wgt>
<wgt id='5006'>0.82427E+02</wgt>
<wgt id='5007'>0.82529E+02</wgt>
<wgt id='5008'>0.82370E+02</wgt>
<wgt id='5009'>0.82535E+02</wgt>
<wgt id='5010'>0.82346E+02</wgt>
<wgt id='5011'>0.82673E+02</wgt>
<wgt id='5012'>0.82219E+02</wgt>
<wgt id='5013'>0.82533E+02</wgt>
<wgt id='5014'>0.82377E+02</wgt>
<wgt id='5015'>0.82046E+02</wgt>
<wgt id='5016'>0.82046E+02</wgt>
<wgt id='5017'>0.82829E+02</wgt>
<wgt id='5018'>0.82180E+02</wgt>
<wgt id='5019'>0.82745E+02</wgt>
<wgt id='5020'>0.82026E+02</wgt>
<wgt id='5021'>0.82547E+02</wgt>
<wgt id='5022'>0.82275E+02</wgt>
<wgt id='5023'>0.82367E+02</wgt>
<wgt id='5024'>0.82620E+02</wgt>
<wgt id='5025'>0.82183E+02</wgt>
<wgt id='5026'>0.82732E+02</wgt>
<wgt id='5027'>0.82491E+02</wgt>
<wgt id='5028'>0.82311E+02</wgt>
<wgt id='5029'>0.83316E+02</wgt>
<wgt id='5030'>0.81949E+02</wgt>
<wgt id='5031'>0.81962E+02</wgt>
<wgt id='5032'>0.83900E+02</wgt>
<wgt id='5033'>0.82398E+02</wgt>
<wgt id='5034'>0.82489E+02</wgt>
<wgt id='5035'>0.82450E+02</wgt>
<wgt id='5036'>0.82432E+02</wgt>
<wgt id='5037'>0.82225E+02</wgt>
<wgt id='5038'>0.82564E+02</wgt>
<wgt id='5039'>0.82624E+02</wgt>
<wgt id='5040'>0.81994E+02</wgt>
<wgt id='5041'>0.82288E+02</wgt>
<wgt id='5042'>0.82603E+02</wgt>
<wgt id='5043'>0.82591E+02</wgt>
<wgt id='5044'>0.82353E+02</wgt>
<wgt id='5045'>0.82596E+02</wgt>
<wgt id='5046'>0.82132E+02</wgt>
<wgt id='5047'>0.82519E+02</wgt>
<wgt id='5048'>0.82107E+02</wgt>
<wgt id='5049'>0.82358E+02</wgt>
<wgt id='5050'>0.82642E+02</wgt>
<wgt id='5051'>0.82666E+02</wgt>
<wgt id='5052'>0.82279E+02</wgt>
<wgt id='5053'>0.82520E+02</wgt>
<wgt id='5054'>0.82627E+02</wgt>
<wgt id='5055'>0.82501E+02</wgt>
<wgt id='5056'>0.82495E+02</wgt>
<wgt id='5057'>0.82115E+02</wgt>
<wgt id='5058'>0.82671E+02</wgt>
<wgt id='5059'>0.82331E+02</wgt>
<wgt id='5060'>0.82512E+02</wgt>
<wgt id='5061'>0.82663E+02</wgt>
<wgt id='5062'>0.82640E+02</wgt>
<wgt id='5063'>0.82712E+02</wgt>
<wgt id='5064'>0.82515E+02</wgt>
<wgt id='5100'>0.82442E+02</wgt>
<wgt id='5101'>0.82435E+02</wgt>
<wgt id='6000'>0.81606E+02</wgt>
<wgt id='6001'>0.81229E+02</wgt>
<wgt id='6002'>0.81175E+02</wgt>
<wgt id='6003'>0.81363E+02</wgt>
<wgt id='6004'>0.81830E+02</wgt>
<wgt id='6005'>0.81122E+02</wgt>
<wgt id='6006'>0.81591E+02</wgt>
<wgt id='6007'>0.81116E+02</wgt>
<wgt id='6008'>0.81754E+02</wgt>
<wgt id='6009'>0.81401E+02</wgt>
<wgt id='6010'>0.81439E+02</wgt>
<wgt id='6011'>0.81580E+02</wgt>
<wgt id='6012'>0.81766E+02</wgt>
<wgt id='6013'>0.81174E+02</wgt>
<wgt id='6014'>0.81306E+02</wgt>
<wgt id='6015'>0.80999E+02</wgt>
<wgt id='6016'>0.81986E+02</wgt>
<wgt id='6017'>0.81207E+02</wgt>
<wgt id='6018'>0.81075E+02</wgt>
<wgt id='6019'>0.81619E+02</wgt>
<wgt id='6020'>0.81811E+02</wgt>
<wgt id='6021'>0.81452E+02</wgt>
<wgt id='6022'>0.81726E+02</wgt>
<wgt id='6023'>0.81544E+02</wgt>
<wgt id='6024'>0.81683E+02</wgt>
<wgt id='6025'>0.82098E+02</wgt>
<wgt id='6026'>0.81445E+02</wgt>
<wgt id='6027'>0.81624E+02</wgt>
<wgt id='6028'>0.81232E+02</wgt>
<wgt id='6029'>0.81420E+02</wgt>
<wgt id='6030'>0.81055E+02</wgt>
<wgt id='6031'>0.81348E+02</wgt>
<wgt id='6032'>0.81566E+02</wgt>
<wgt id='6033'>0.81522E+02</wgt>
<wgt id='6034'>0.81955E+02</wgt>
<wgt id='6035'>0.81659E+02</wgt>
<wgt id='6036'>0.82415E+02</wgt>
<wgt id='6037'>0.81596E+02</wgt>
<wgt id='6038'>0.81532E+02</wgt>
<wgt id='6039'>0.81825E+02</wgt>
<wgt id='6040'>0.81599E+02</wgt>
<wgt id='6041'>0.80348E+02</wgt>
<wgt id='6042'>0.82591E+02</wgt>
<wgt id='7000'>0.81229E+02</wgt>
<wgt id='7001'>0.80784E+02</wgt>
<wgt id='7002'>0.80947E+02</wgt>
<wgt id='7003'>0.80876E+02</wgt>
<wgt id='7004'>0.80856E+02</wgt>
<wgt id='7005'>0.80958E+02</wgt>
<wgt id='7006'>0.80773E+02</wgt>
<wgt id='7007'>0.81322E+02</wgt>
<wgt id='7008'>0.80421E+02</wgt>
<wgt id='7009'>0.80531E+02</wgt>
<wgt id='7010'>0.81212E+02</wgt>
<wgt id='7011'>0.81137E+02</wgt>
<wgt id='7012'>0.80601E+02</wgt>
<wgt id='7013'>0.80772E+02</wgt>
<wgt id='7014'>0.80955E+02</wgt>
<wgt id='7015'>0.80980E+02</wgt>
<wgt id='7016'>0.80602E+02</wgt>
<wgt id='7017'>0.80763E+02</wgt>
<wgt id='7018'>0.80971E+02</wgt>
<wgt id='7019'>0.81062E+02</wgt>
<wgt id='7020'>0.80681E+02</wgt>
<wgt id='7021'>0.81649E+02</wgt>
<wgt id='7022'>0.80084E+02</wgt>
<wgt id='7023'>0.79997E+02</wgt>
<wgt id='7024'>0.81739E+02</wgt>
<wgt id='7025'>0.79511E+02</wgt>
<wgt id='7026'>0.82138E+02</wgt>
<wgt id='7027'>0.80289E+02</wgt>
<wgt id='7028'>0.81516E+02</wgt>
<wgt id='8000'>0.81431E+02</wgt>
<wgt id='8001'>0.81421E+02</wgt>
<wgt id='8002'>0.81456E+02</wgt>
<wgt id='8003'>0.81432E+02</wgt>
<wgt id='8004'>0.81429E+02</wgt>
<wgt id='8005'>0.81269E+02</wgt>
<wgt id='8006'>0.81512E+02</wgt>
<wgt id='8007'>0.81571E+02</wgt>
<wgt id='8008'>0.81607E+02</wgt>
<wgt id='8009'>0.81772E+02</wgt>
<wgt id='8010'>0.81347E+02</wgt>
<wgt id='8011'>0.81452E+02</wgt>
<wgt id='8012'>0.81154E+02</wgt>
<wgt id='8013'>0.81278E+02</wgt>
<wgt id='8014'>0.81616E+02</wgt>
<wgt id='8015'>0.81375E+02</wgt>
<wgt id='8016'>0.81538E+02</wgt>
<wgt id='8017'>0.81532E+02</wgt>
<wgt id='8018'>0.81688E+02</wgt>
<wgt id='8019'>0.81343E+02</wgt>
<wgt id='8020'>0.81610E+02</wgt>
<wgt id='8021'>0.81303E+02</wgt>
<wgt id='8022'>0.81756E+02</wgt>
<wgt id='8023'>0.81203E+02</wgt>
<wgt id='8024'>0.80975E+02</wgt>
<wgt id='8025'>0.81136E+02</wgt>
<wgt id='8026'>0.81468E+02</wgt>
<wgt id='8027'>0.81541E+02</wgt>
<wgt id='8028'>0.81469E+02</wgt>
<wgt id='8029'>0.82417E+02</wgt>
<wgt id='3000'>0.81104E+02</wgt>
<wgt id='3001'>0.81012E+02</wgt>
<wgt id='3002'>0.80697E+02</wgt>
<wgt id='3003'>0.82287E+02</wgt>
<wgt id='3004'>0.82054E+02</wgt>
<wgt id='3005'>0.82798E+02</wgt>
<wgt id='3006'>0.81259E+02</wgt>
<wgt id='3007'>0.79327E+02</wgt>
<wgt id='3008'>0.79624E+02</wgt>
<wgt id='3009'>0.80443E+02</wgt>
<wgt id='3010'>0.83965E+02</wgt>
<wgt id='3011'>0.81741E+02</wgt>
<wgt id='3012'>0.79620E+02</wgt>
<wgt id='3013'>0.79526E+02</wgt>
<wgt id='3014'>0.80678E+02</wgt>
<wgt id='3015'>0.78481E+02</wgt>
<wgt id='3016'>0.81244E+02</wgt>
<wgt id='3017'>0.82007E+02</wgt>
<wgt id='3018'>0.80280E+02</wgt>
<wgt id='3019'>0.80352E+02</wgt>
<wgt id='3020'>0.80921E+02</wgt>
<wgt id='3021'>0.78196E+02</wgt>
<wgt id='3022'>0.79738E+02</wgt>
<wgt id='3023'>0.80065E+02</wgt>
<wgt id='3024'>0.81554E+02</wgt>
<wgt id='3025'>0.79973E+02</wgt>
<wgt id='3026'>0.80156E+02</wgt>
<wgt id='3027'>0.82210E+02</wgt>
<wgt id='3028'>0.79273E+02</wgt>
<wgt id='3029'>0.81437E+02</wgt>
<wgt id='3030'>0.80381E+02</wgt>
<wgt id='3031'>0.80942E+02</wgt>
<wgt id='3032'>0.78290E+02</wgt>
<wgt id='3033'>0.80109E+02</wgt>
<wgt id='3034'>0.82632E+02</wgt>
<wgt id='3035'>0.82126E+02</wgt>
<wgt id='3036'>0.80776E+02</wgt>
<wgt id='3037'>0.80256E+02</wgt>
<wgt id='3038'>0.82287E+02</wgt>
<wgt id='3039'>0.78548E+02</wgt>
<wgt id='3040'>0.81310E+02</wgt>
<wgt id='3041'>0.82052E+02</wgt>
<wgt id='3042'>0.81673E+02</wgt>
<wgt id='3043'>0.82426E+02</wgt>
<wgt id='3044'>0.82338E+02</wgt>
<wgt id='3045'>0.81866E+02</wgt>
<wgt id='3046'>0.81311E+02</wgt>
<wgt id='3047'>0.81531E+02</wgt>
<wgt id='3048'>0.82394E+02</wgt>
<wgt id='3049'>0.79669E+02</wgt>
<wgt id='3050'>0.82180E+02</wgt>
<wgt id='3051'>0.79667E+02</wgt>
<wgt id='3052'>0.80069E+02</wgt>
<wgt id='3053'>0.82284E+02</wgt>
<wgt id='3054'>0.78504E+02</wgt>
<wgt id='3055'>0.81961E+02</wgt>
<wgt id='3056'>0.81033E+02</wgt>
<wgt id='3057'>0.79581E+02</wgt>
<wgt id='3058'>0.82685E+02</wgt>
<wgt id='3059'>0.80890E+02</wgt>
<wgt id='3060'>0.80057E+02</wgt>
<wgt id='3061'>0.79606E+02</wgt>
<wgt id='3062'>0.81574E+02</wgt>
<wgt id='3063'>0.81900E+02</wgt>
<wgt id='3064'>0.82765E+02</wgt>
<wgt id='3065'>0.79475E+02</wgt>
<wgt id='3066'>0.83093E+02</wgt>
<wgt id='3067'>0.80596E+02</wgt>
<wgt id='3068'>0.80305E+02</wgt>
<wgt id='3069'>0.80574E+02</wgt>
<wgt id='3070'>0.81692E+02</wgt>
<wgt id='3071'>0.80961E+02</wgt>
<wgt id='3072'>0.81244E+02</wgt>
<wgt id='3073'>0.81315E+02</wgt>
<wgt id='3074'>0.80396E+02</wgt>
<wgt id='3075'>0.81693E+02</wgt>
<wgt id='3076'>0.83044E+02</wgt>
<wgt id='3077'>0.82469E+02</wgt>
<wgt id='3078'>0.78897E+02</wgt>
<wgt id='3079'>0.81233E+02</wgt>
<wgt id='3080'>0.83758E+02</wgt>
<wgt id='3081'>0.82134E+02</wgt>
<wgt id='3082'>0.81244E+02</wgt>
<wgt id='3083'>0.81565E+02</wgt>
<wgt id='3084'>0.80524E+02</wgt>
<wgt id='3085'>0.80439E+02</wgt>
<wgt id='3086'>0.82680E+02</wgt>
<wgt id='3087'>0.80348E+02</wgt>
<wgt id='3088'>0.81780E+02</wgt>
<wgt id='3089'>0.84622E+02</wgt>
<wgt id='3090'>0.81455E+02</wgt>
<wgt id='3091'>0.81339E+02</wgt>
<wgt id='3092'>0.81684E+02</wgt>
<wgt id='3093'>0.81615E+02</wgt>
<wgt id='3094'>0.82050E+02</wgt>
<wgt id='3095'>0.78957E+02</wgt>
<wgt id='3096'>0.80629E+02</wgt>
<wgt id='3097'>0.84722E+02</wgt>
<wgt id='3098'>0.81625E+02</wgt>
<wgt id='3099'>0.80167E+02</wgt>
<wgt id='3100'>0.80990E+02</wgt>
<wgt id='3200'>0.79331E+02</wgt>
<wgt id='3201'>0.78996E+02</wgt>
<wgt id='3202'>0.77370E+02</wgt>
<wgt id='3203'>0.79665E+02</wgt>
<wgt id='3204'>0.78573E+02</wgt>
<wgt id='3205'>0.79361E+02</wgt>
<wgt id='3206'>0.80769E+02</wgt>
<wgt id='3207'>0.80378E+02</wgt>
<wgt id='3208'>0.79531E+02</wgt>
<wgt id='3209'>0.79148E+02</wgt>
<wgt id='3210'>0.79517E+02</wgt>
<wgt id='3211'>0.79759E+02</wgt>
<wgt id='3212'>0.79704E+02</wgt>
<wgt id='3213'>0.79796E+02</wgt>
<wgt id='3214'>0.78912E+02</wgt>
<wgt id='3215'>0.79494E+02</wgt>
<wgt id='3216'>0.79852E+02</wgt>
<wgt id='3217'>0.79901E+02</wgt>
<wgt id='3218'>0.80659E+02</wgt>
<wgt id='3219'>0.79467E+02</wgt>
<wgt id='3220'>0.78355E+02</wgt>
<wgt id='3221'>0.79181E+02</wgt>
<wgt id='3222'>0.80032E+02</wgt>
<wgt id='3223'>0.80634E+02</wgt>
<wgt id='3224'>0.79032E+02</wgt>
<wgt id='3225'>0.80410E+02</wgt>
<wgt id='3226'>0.78180E+02</wgt>
<wgt id='3227'>0.78238E+02</wgt>
<wgt id='3228'>0.78614E+02</wgt>
<wgt id='3229'>0.80411E+02</wgt>
<wgt id='3230'>0.79448E+02</wgt>
<wgt id='3231'>0.79456E+02</wgt>
<wgt id='3232'>0.79597E+02</wgt>
<wgt id='3233'>0.79393E+02</wgt>
<wgt id='3234'>0.78149E+02</wgt>
<wgt id='3235'>0.79585E+02</wgt>
<wgt id='3236'>0.79528E+02</wgt>
<wgt id='3237'>0.79715E+02</wgt>
<wgt id='3238'>0.78165E+02</wgt>
<wgt id='3239'>0.79031E+02</wgt>
<wgt id='3240'>0.78137E+02</wgt>
<wgt id='3241'>0.80252E+02</wgt>
<wgt id='3242'>0.79258E+02</wgt>
<wgt id='3243'>0.79736E+02</wgt>
<wgt id='3244'>0.79539E+02</wgt>
<wgt id='3245'>0.79811E+02</wgt>
<wgt id='3246'>0.77502E+02</wgt>
<wgt id='3247'>0.78552E+02</wgt>
<wgt id='3248'>0.78970E+02</wgt>
<wgt id='3249'>0.78130E+02</wgt>
<wgt id='3250'>0.79630E+02</wgt>
<wgt id='3251'>0.78845E+02</wgt>
<wgt id='3252'>0.80075E+02</wgt>
<wgt id='3253'>0.79301E+02</wgt>
<wgt id='3254'>0.79299E+02</wgt>
<wgt id='3255'>0.78341E+02</wgt>
<wgt id='3256'>0.79644E+02</wgt>
<wgt id='3257'>0.79464E+02</wgt>
<wgt id='3258'>0.78561E+02</wgt>
<wgt id='3259'>0.77996E+02</wgt>
<wgt id='3260'>0.78984E+02</wgt>
<wgt id='3261'>0.78305E+02</wgt>
<wgt id='3262'>0.80434E+02</wgt>
<wgt id='3263'>0.80119E+02</wgt>
<wgt id='3264'>0.79392E+02</wgt>
<wgt id='3265'>0.80023E+02</wgt>
<wgt id='3266'>0.79715E+02</wgt>
<wgt id='3267'>0.79320E+02</wgt>
<wgt id='3268'>0.78614E+02</wgt>
<wgt id='3269'>0.79202E+02</wgt>
<wgt id='3270'>0.81021E+02</wgt>
<wgt id='3271'>0.79480E+02</wgt>
<wgt id='3272'>0.79425E+02</wgt>
<wgt id='3273'>0.79333E+02</wgt>
<wgt id='3274'>0.78320E+02</wgt>
<wgt id='3275'>0.80115E+02</wgt>
<wgt id='3276'>0.78636E+02</wgt>
<wgt id='3277'>0.79639E+02</wgt>
<wgt id='3278'>0.80082E+02</wgt>
<wgt id='3279'>0.79548E+02</wgt>
<wgt id='3280'>0.79198E+02</wgt>
<wgt id='3281'>0.79789E+02</wgt>
<wgt id='3282'>0.79567E+02</wgt>
<wgt id='3283'>0.79343E+02</wgt>
<wgt id='3284'>0.78836E+02</wgt>
<wgt id='3285'>0.79415E+02</wgt>
<wgt id='3286'>0.78166E+02</wgt>
<wgt id='3287'>0.81068E+02</wgt>
<wgt id='3288'>0.78786E+02</wgt>
<wgt id='3289'>0.80435E+02</wgt>
<wgt id='3290'>0.78106E+02</wgt>
<wgt id='3291'>0.78531E+02</wgt>
<wgt id='3292'>0.79625E+02</wgt>
<wgt id='3293'>0.79170E+02</wgt>
<wgt id='3294'>0.79469E+02</wgt>
<wgt id='3295'>0.79382E+02</wgt>
<wgt id='3296'>0.79811E+02</wgt>
<wgt id='3297'>0.79483E+02</wgt>
<wgt id='3298'>0.78250E+02</wgt>
<wgt id='3299'>0.79811E+02</wgt>
<wgt id='3300'>0.80055E+02</wgt>
<wgt id='3301'>0.77910E+02</wgt>
<wgt id='3302'>0.80297E+02</wgt>
<wgt id='3400'>0.78280E+02</wgt>
<wgt id='3401'>0.78420E+02</wgt>
<wgt id='3402'>0.76635E+02</wgt>
<wgt id='3403'>0.78986E+02</wgt>
<wgt id='3404'>0.79670E+02</wgt>
<wgt id='3405'>0.78447E+02</wgt>
<wgt id='3406'>0.79932E+02</wgt>
<wgt id='3407'>0.78538E+02</wgt>
<wgt id='3408'>0.78965E+02</wgt>
<wgt id='3409'>0.78764E+02</wgt>
<wgt id='3410'>0.78816E+02</wgt>
<wgt id='3411'>0.79929E+02</wgt>
<wgt id='3412'>0.79191E+02</wgt>
<wgt id='3413'>0.78053E+02</wgt>
<wgt id='3414'>0.77480E+02</wgt>
<wgt id='3415'>0.78030E+02</wgt>
<wgt id='3416'>0.77691E+02</wgt>
<wgt id='3417'>0.79028E+02</wgt>
<wgt id='3418'>0.77467E+02</wgt>
<wgt id='3419'>0.77652E+02</wgt>
<wgt id='3420'>0.77793E+02</wgt>
<wgt id='3421'>0.77532E+02</wgt>
<wgt id='3422'>0.78022E+02</wgt>
<wgt id='3423'>0.79077E+02</wgt>
<wgt id='3424'>0.78848E+02</wgt>
<wgt id='3425'>0.77585E+02</wgt>
<wgt id='3426'>0.77597E+02</wgt>
<wgt id='3427'>0.77032E+02</wgt>
<wgt id='3428'>0.78853E+02</wgt>
<wgt id='3429'>0.77467E+02</wgt>
<wgt id='3430'>0.77979E+02</wgt>
<wgt id='3431'>0.78715E+02</wgt>
<wgt id='3432'>0.79659E+02</wgt>
<wgt id='3433'>0.77997E+02</wgt>
<wgt id='3434'>0.79278E+02</wgt>
<wgt id='3435'>0.79126E+02</wgt>
<wgt id='3436'>0.77969E+02</wgt>
<wgt id='3437'>0.79589E+02</wgt>
<wgt id='3438'>0.77696E+02</wgt>
<wgt id='3439'>0.76502E+02</wgt>
<wgt id='3440'>0.78577E+02</wgt>
<wgt id='3441'>0.78254E+02</wgt>
<wgt id='3442'>0.77373E+02</wgt>
<wgt id='3443'>0.78864E+02</wgt>
<wgt id='3444'>0.77234E+02</wgt>
<wgt id='3445'>0.77766E+02</wgt>
<wgt id='3446'>0.78255E+02</wgt>
<wgt id='3447'>0.78177E+02</wgt>
<wgt id='3448'>0.80073E+02</wgt>
<wgt id='3449'>0.78711E+02</wgt>
<wgt id='3450'>0.77791E+02</wgt>
<wgt id='3451'>0.79190E+02</wgt>
<wgt id='3452'>0.77985E+02</wgt>
<wgt id='3453'>0.76917E+02</wgt>
<wgt id='3454'>0.78409E+02</wgt>
<wgt id='3455'>0.78872E+02</wgt>
<wgt id='3456'>0.78418E+02</wgt>
<wgt id='3457'>0.78508E+02</wgt>
<wgt id='3458'>0.77756E+02</wgt>
<wgt id='3459'>0.78196E+02</wgt>
<wgt id='3460'>0.78039E+02</wgt>
<wgt id='3461'>0.77151E+02</wgt>
<wgt id='3462'>0.78677E+02</wgt>
<wgt id='3463'>0.77100E+02</wgt>
<wgt id='3464'>0.78560E+02</wgt>
<wgt id='3465'>0.79237E+02</wgt>
<wgt id='3466'>0.78774E+02</wgt>
<wgt id='3467'>0.77990E+02</wgt>
<wgt id='3468'>0.77553E+02</wgt>
<wgt id='3469'>0.77300E+02</wgt>
<wgt id='3470'>0.77636E+02</wgt>
<wgt id='3471'>0.77888E+02</wgt>
<wgt id='3472'>0.76677E+02</wgt>
<wgt id='3473'>0.79995E+02</wgt>
<wgt id='3474'>0.77447E+02</wgt>
<wgt id='3475'>0.78971E+02</wgt>
<wgt id='3476'>0.78104E+02</wgt>
<wgt id='3477'>0.77255E+02</wgt>
<wgt id='3478'>0.79488E+02</wgt>
<wgt id='3479'>0.78200E+02</wgt>
<wgt id='3480'>0.79060E+02</wgt>
<wgt id='3481'>0.79284E+02</wgt>
<wgt id='3482'>0.78602E+02</wgt>
<wgt id='3483'>0.78253E+02</wgt>
<wgt id='3484'>0.77293E+02</wgt>
<wgt id='3485'>0.77688E+02</wgt>
<wgt id='3486'>0.76073E+02</wgt>
<wgt id='3487'>0.77438E+02</wgt>
<wgt id='3488'>0.78276E+02</wgt>
<wgt id='3489'>0.77146E+02</wgt>
<wgt id='3490'>0.78981E+02</wgt>
<wgt id='3491'>0.80221E+02</wgt>
<wgt id='3492'>0.77771E+02</wgt>
<wgt id='3493'>0.79915E+02</wgt>
<wgt id='3494'>0.76536E+02</wgt>
<wgt id='3495'>0.78987E+02</wgt>
<wgt id='3496'>0.77503E+02</wgt>
<wgt id='3497'>0.78078E+02</wgt>
<wgt id='3498'>0.79845E+02</wgt>
<wgt id='3499'>0.77671E+02</wgt>
<wgt id='3500'>0.80012E+02</wgt>
</rwgt>
</event>
<event>
     13 322200  8.11039E+01  2.97544E+01 -1.00000E+00  1.50839E-01
      21    -1     0     0   504   505  0.000000000E+00  0.000000000E+00  3.235725677E+02  3.235725677E+02  0.000000000E+00  0.00000E+00  9.000E+00
      21    -1     0     0   502   503  0.000000000E+00  0.000000000E+00 -5.629013157E+02  5.629013157E+02  0.000000000E+00  0.00000E+00  9.000E+00
       6     2     1     2   502     0 -1.047588890E+02  6.733921260E+01 -2.678797071E+02  3.422733050E+02  1.728655068E+02  0.00000E+00  9.000E+00
      -6     2     1     2     0   505  1.331312565E+02 -5.837640536E+01 -2.069045273E+02  3.068725161E+02  1.738663899E+02  0.00000E+00  9.000E+00
      21     1     1     2   504   503 -2.837236751E+01 -8.962807239E+00  2.354554864E+02  2.373280624E+02  3.814697266E-06  0.00000E+00  9.000E+00
      24     2     3     3     0     0 -8.923580735E+01 -1.957740142E+01 -1.230559205E+02  1.725824195E+02  7.934499346E+01  0.00000E+00  9.000E+00
       5     1     3     3   502     0 -1.552308164E+01  8.691661402E+01 -1.448237866E+02  1.696908855E+02  5.060000000E+00  0.00000E+00 -1.000E+00
     -24     2     4     4     0     0  3.815378072E+01 -3.007187135E+01 -1.815686219E+02  2.044548455E+02  8.046484296E+01  0.00000E+00  9.000E+00
      -5     1     4     4     0   505  9.497747578E+01 -2.830453401E+01 -2.533590541E+01  1.024176706E+02  5.060000000E+00  0.00000E+00  1.000E+00
     -15     1     6     6     0     0 -1.115771672E+01 -1.434644002E+01  8.003912142E+00  1.993828785E+01  1.777000000E+00  0.00000E+00  1.000E+00
      16     1     6     6     0     0 -7.807809063E+01 -5.230961395E+00 -1.310598326E+02  1.526441316E+02  0.000000000E+00  0.00000E+00 -1.000E+00
      15     1     8     8     0     0  5.590695355E+01 -3.707929757E+01 -1.683649898E+02  1.812467635E+02  1.777000000E+00  0.00000E+00 -1.000E+00
     -16     1     8     8     0     0 -1.775317283E+01  7.007426213E+00 -1.320363205E+01  2.320808193E+01  0.000000000E+00  0.00000E+00  1.000E+00
#rwgt            1           1   673.49532282541122               10       38653           0
<rwgt>
<wgt id='1001'>0.81104E+02</wgt>
<wgt id='1002'>0.85037E+02</wgt>
<wgt id='1003'>0.76594E+02</wgt>
<wgt id='1004'>0.69454E+02</wgt>
<wgt id='1005'>0.72127E+02</wgt>
<wgt id='1006'>0.66337E+02</wgt>
<wgt id='1007'>0.95990E+02</wgt>
<wgt id='1008'>0.10185E+03</wgt>
<wgt id='1009'>0.89362E+02</wgt>
<wgt id='2000'>0.81104E+02</wgt>
<wgt id='2001'>0.81041E+02</wgt>
<wgt id='2002'>0.80962E+02</wgt>
<wgt id='2003'>0.81279E+02</wgt>
<wgt id='2004'>0.81273E+02</wgt>
<wgt id='2005'>0.81109E+02</wgt>
<wgt id='2006'>0.81265E+02</wgt>
<wgt id='2007'>0.81265E+02</wgt>
<wgt id='2008'>0.81361E+02</wgt>
<wgt id='2009'>0.81008E+02</wgt>
<wgt id='2010'>0.81057E+02</wgt>
<wgt id='2011'>0.80973E+02</wgt>
<wgt id='2012'>0.81157E+02</wgt>
<wgt id='2013'>0.81111E+02</wgt>
<wgt id='2014'>0.81219E+02</wgt>
<wgt id='2015'>0.81216E+02</wgt>
<wgt id='2016'>0.81080E+02</wgt>
<wgt id='2017'>0.81205E+02</wgt>
<wgt id='2018'>0.81143E+02</wgt>
<wgt id='2019'>0.80861E+02</wgt>
<wgt id='2020'>0.81189E+02</wgt>
<wgt id='2021'>0.80949E+02</wgt>
<wgt id='2022'>0.81236E+02</wgt>
<wgt id='2023'>0.81179E+02</wgt>
<wgt id='2024'>0.80988E+02</wgt>
<wgt id='2025'>0.81001E+02</wgt>
<wgt id='2026'>0.81002E+02</wgt>
<wgt id='2027'>0.80851E+02</wgt>
<wgt id='2028'>0.81135E+02</wgt>
<wgt id='2029'>0.80735E+02</wgt>
<wgt id='2030'>0.81117E+02</wgt>
<wgt id='2031'>0.80836E+02</wgt>
<wgt id='2032'>0.81194E+02</wgt>
<wgt id='2033'>0.80985E+02</wgt>
<wgt id='2034'>0.80963E+02</wgt>
<wgt id='2035'>0.81085E+02</wgt>
<wgt id='2036'>0.81281E+02</wgt>
<wgt id='2037'>0.81099E+02</wgt>
<wgt id='2038'>0.81051E+02</wgt>
<wgt id='2039'>0.81099E+02</wgt>
<wgt id='2040'>0.81062E+02</wgt>
<wgt id='2041'>0.81087E+02</wgt>
<wgt id='2042'>0.81179E+02</wgt>
<wgt id='2043'>0.81043E+02</wgt>
<wgt id='2044'>0.81166E+02</wgt>
<wgt id='2045'>0.81089E+02</wgt>
<wgt id='2046'>0.81100E+02</wgt>
<wgt id='2047'>0.81104E+02</wgt>
<wgt id='2048'>0.81075E+02</wgt>
<wgt id='2049'>0.81037E+02</wgt>
<wgt id='2050'>0.81080E+02</wgt>
<wgt id='2051'>0.81088E+02</wgt>
<wgt id='2052'>0.81170E+02</wgt>
<wgt id='2053'>0.81084E+02</wgt>
<wgt id='2054'>0.81092E+02</wgt>
<wgt id='2055'>0.81120E+02</wgt>
<wgt id='2056'>0.81050E+02</wgt>
<wgt id='2057'>0.81133E+02</wgt>
<wgt id='2058'>0.81120E+02</wgt>
<wgt id='2059'>0.81095E+02</wgt>
<wgt id='2060'>0.81108E+02</wgt>
<wgt id='2061'>0.81096E+02</wgt>
<wgt id='2062'>0.81169E+02</wgt>
<wgt id='2063'>0.81123E+02</wgt>
<wgt id='2064'>0.81119E+02</wgt>
<wgt id='2065'>0.81172E+02</wgt>
<wgt id='2066'>0.81089E+02</wgt>
<wgt id='2067'>0.81121E+02</wgt>
<wgt id='2068'>0.81119E+02</wgt>
<wgt id='2069'>0.81112E+02</wgt>
<wgt id='2070'>0.81113E+02</wgt>
<wgt id='2071'>0.81099E+02</wgt>
<wgt id='2072'>0.81102E+02</wgt>
<wgt id='2073'>0.81117E+02</wgt>
<wgt id='2074'>0.81094E+02</wgt>
<wgt id='2075'>0.81081E+02</wgt>
<wgt id='2076'>0.81095E+02</wgt>
<wgt id='2077'>0.81142E+02</wgt>
<wgt id='2078'>0.81119E+02</wgt>
<wgt id='2079'>0.81085E+02</wgt>
<wgt id='2080'>0.81116E+02</wgt>
<wgt id='2081'>0.81098E+02</wgt>
<wgt id='2082'>0.81116E+02</wgt>
<wgt id='2083'>0.81133E+02</wgt>
<wgt id='2084'>0.81112E+02</wgt>
<wgt id='2085'>0.81107E+02</wgt>
<wgt id='2086'>0.81090E+02</wgt>
<wgt id='2087'>0.81118E+02</wgt>
<wgt id='2088'>0.81101E+02</wgt>
<wgt id='2089'>0.81091E+02</wgt>
<wgt id='2090'>0.81117E+02</wgt>
<wgt id='2091'>0.81102E+02</wgt>
<wgt id='2092'>0.81124E+02</wgt>
<wgt id='2093'>0.81093E+02</wgt>
<wgt id='2094'>0.81110E+02</wgt>
<wgt id='2095'>0.81120E+02</wgt>
<wgt id='2096'>0.81092E+02</wgt>
<wgt id='2097'>0.81118E+02</wgt>
<wgt id='2098'>0.81102E+02</wgt>
<wgt id='2099'>0.81115E+02</wgt>
<wgt id='2100'>0.81104E+02</wgt>
<wgt id='2101'>0.78899E+02</wgt>
<wgt id='2102'>0.83400E+02</wgt>
<wgt id='2200'>0.81175E+02</wgt>
<wgt id='2201'>0.70629E+02</wgt>
<wgt id='2202'>0.72696E+02</wgt>
<wgt id='2203'>0.74696E+02</wgt>
<wgt id='2204'>0.76683E+02</wgt>
<wgt id='2205'>0.80151E+02</wgt>
<wgt id='2206'>0.82337E+02</wgt>
<wgt id='2207'>0.85410E+02</wgt>
<wgt id='2208'>0.87569E+02</wgt>
<wgt id='2300'>0.84749E+02</wgt>
<wgt id='2301'>0.84876E+02</wgt>
<wgt id='2302'>0.84606E+02</wgt>
<wgt id='2303'>0.84792E+02</wgt>
<wgt id='2304'>0.84986E+02</wgt>
<wgt id='2305'>0.84843E+02</wgt>
<wgt id='2306'>0.84721E+02</wgt>
<wgt id='2307'>0.84848E+02</wgt>
<wgt id='2308'>0.84677E+02</wgt>
<wgt id='2309'>0.84850E+02</wgt>
<wgt id='2310'>0.84610E+02</wgt>
<wgt id='2311'>0.84693E+02</wgt>
<wgt id='2312'>0.84886E+02</wgt>
<wgt id='2313'>0.84675E+02</wgt>
<wgt id='2314'>0.84800E+02</wgt>
<wgt id='2315'>0.84766E+02</wgt>
<wgt id='2316'>0.84753E+02</wgt>
<wgt id='2317'>0.84763E+02</wgt>
<wgt id='2318'>0.84788E+02</wgt>
<wgt id='2319'>0.84845E+02</wgt>
<wgt id='2320'>0.84871E+02</wgt>
<wgt id='2321'>0.84858E+02</wgt>
<wgt id='2322'>0.84753E+02</wgt>
<wgt id='2323'>0.84789E+02</wgt>
<wgt id='2324'>0.84806E+02</wgt>
<wgt id='2325'>0.84862E+02</wgt>
<wgt id='2326'>0.84644E+02</wgt>
<wgt id='2327'>0.84792E+02</wgt>
<wgt id='2328'>0.84687E+02</wgt>
<wgt id='2329'>0.84515E+02</wgt>
<wgt id='2330'>0.85236E+02</wgt>
<wgt id='2331'>0.84995E+02</wgt>
<wgt id='2332'>0.84747E+02</wgt>
<wgt id='2333'>0.84928E+02</wgt>
<wgt id='2334'>0.84731E+02</wgt>
<wgt id='2335'>0.85178E+02</wgt>
<wgt id='2336'>0.84870E+02</wgt>
<wgt id='2337'>0.84677E+02</wgt>
<wgt id='2338'>0.84775E+02</wgt>
<wgt id='2339'>0.84812E+02</wgt>
<wgt id='2340'>0.84589E+02</wgt>
<wgt id='2341'>0.84794E+02</wgt>
<wgt id='2342'>0.84683E+02</wgt>
<wgt id='2343'>0.84627E+02</wgt>
<wgt id='2344'>0.84805E+02</wgt>
<wgt id='2345'>0.84821E+02</wgt>
<wgt id='2346'>0.84867E+02</wgt>
<wgt id='2347'>0.84763E+02</wgt>
<wgt id='2348'>0.84727E+02</wgt>
<wgt id='2349'>0.84719E+02</wgt>
<wgt id='2350'>0.84655E+02</wgt>
<wgt id='2351'>0.84867E+02</wgt>
<wgt id='2352'>0.84694E+02</wgt>
<wgt id='2353'>0.84755E+02</wgt>
<wgt id='2354'>0.84778E+02</wgt>
<wgt id='2355'>0.84657E+02</wgt>
<wgt id='2356'>0.84773E+02</wgt>
<wgt id='2357'>0.84764E+02</wgt>
<wgt id='2358'>0.84675E+02</wgt>
<wgt id='2359'>0.84779E+02</wgt>
<wgt id='2360'>0.84793E+02</wgt>
<wgt id='2361'>0.84817E+02</wgt>
<wgt id='2362'>0.84786E+02</wgt>
<wgt id='2363'>0.84773E+02</wgt>
<wgt id='2364'>0.84724E+02</wgt>
<wgt id='2365'>0.84745E+02</wgt>
<wgt id='2366'>0.84780E+02</wgt>
<wgt id='2367'>0.84680E+02</wgt>
<wgt id='2368'>0.84772E+02</wgt>
<wgt id='2369'>0.84706E+02</wgt>
<wgt id='2370'>0.84732E+02</wgt>
<wgt id='2371'>0.84734E+02</wgt>
<wgt id='2372'>0.84781E+02</wgt>
<wgt id='2373'>0.84732E+02</wgt>
<wgt id='2374'>0.84775E+02</wgt>
<wgt id='2375'>0.84776E+02</wgt>
<wgt id='2376'>0.84730E+02</wgt>
<wgt id='2377'>0.84738E+02</wgt>
<wgt id='2378'>0.84784E+02</wgt>
<wgt id='2379'>0.84728E+02</wgt>
<wgt id='2380'>0.84748E+02</wgt>
<wgt id='2381'>0.84743E+02</wgt>
<wgt id='2382'>0.84746E+02</wgt>
<wgt id='2383'>0.84734E+02</wgt>
<wgt id='2384'>0.84722E+02</wgt>
<wgt id='2385'>0.84762E+02</wgt>
<wgt id='2386'>0.84742E+02</wgt>
<wgt id='2387'>0.84740E+02</wgt>
<wgt id='2388'>0.84735E+02</wgt>
<wgt id='2389'>0.84752E+02</wgt>
<wgt id='2390'>0.84760E+02</wgt>
<wgt id='2391'>0.84749E+02</wgt>
<wgt id='2392'>0.84740E+02</wgt>
<wgt id='2393'>0.84756E+02</wgt>
<wgt id='2394'>0.84763E+02</wgt>
<wgt id='2395'>0.84753E+02</wgt>
<wgt id='2396'>0.84737E+02</wgt>
<wgt id='2397'>0.84734E+02</wgt>
<wgt id='2398'>0.84734E+02</wgt>
<wgt id='2399'>0.84758E+02</wgt>
<wgt id='2400'>0.84759E+02</wgt>
<wgt id='2401'>0.82405E+02</wgt>
<wgt id='2402'>0.86995E+02</wgt>
<wgt id='2500'>0.81526E+02</wgt>
<wgt id='2501'>0.86364E+02</wgt>
<wgt id='2600'>0.78833E+02</wgt>
<wgt id='2601'>0.78717E+02</wgt>
<wgt id='2602'>0.78897E+02</wgt>
<wgt id='2603'>0.78800E+02</wgt>
<wgt id='2604'>0.78938E+02</wgt>
<wgt id='2605'>0.78745E+02</wgt>
<wgt id='2606'>0.78742E+02</wgt>
<wgt id='2607'>0.78925E+02</wgt>
<wgt id='2608'>0.78837E+02</wgt>
<wgt id='2609'>0.78775E+02</wgt>
<wgt id='2610'>0.78786E+02</wgt>
<wgt id='2611'>0.78785E+02</wgt>
<wgt id='2612'>0.78988E+02</wgt>
<wgt id='2613'>0.78800E+02</wgt>
<wgt id='2614'>0.78788E+02</wgt>
<wgt id='2615'>0.78666E+02</wgt>
<wgt id='2616'>0.78821E+02</wgt>
<wgt id='2617'>0.78672E+02</wgt>
<wgt id='2618'>0.78678E+02</wgt>
<wgt id='2619'>0.78890E+02</wgt>
<wgt id='2620'>0.78804E+02</wgt>
<wgt id='2621'>0.78843E+02</wgt>
<wgt id='2622'>0.79044E+02</wgt>
<wgt id='2623'>0.78833E+02</wgt>
<wgt id='2624'>0.78835E+02</wgt>
<wgt id='2625'>0.78758E+02</wgt>
<wgt id='2626'>0.78812E+02</wgt>
<wgt id='2627'>0.78811E+02</wgt>
<wgt id='2628'>0.78851E+02</wgt>
<wgt id='2629'>0.78835E+02</wgt>
<wgt id='2630'>0.78851E+02</wgt>
<wgt id='2631'>0.78767E+02</wgt>
<wgt id='2632'>0.78859E+02</wgt>
<wgt id='2633'>0.78805E+02</wgt>
<wgt id='2634'>0.78798E+02</wgt>
<wgt id='2635'>0.78836E+02</wgt>
<wgt id='2636'>0.78812E+02</wgt>
<wgt id='2637'>0.78841E+02</wgt>
<wgt id='2638'>0.78870E+02</wgt>
<wgt id='2639'>0.78830E+02</wgt>
<wgt id='2640'>0.78830E+02</wgt>
<wgt id='2641'>0.78857E+02</wgt>
<wgt id='2642'>0.78848E+02</wgt>
<wgt id='2643'>0.78843E+02</wgt>
<wgt id='2644'>0.78825E+02</wgt>
<wgt id='2645'>0.78838E+02</wgt>
<wgt id='2646'>0.78835E+02</wgt>
<wgt id='2647'>0.78837E+02</wgt>
<wgt id='2648'>0.78833E+02</wgt>
<wgt id='2649'>0.78835E+02</wgt>
<wgt id='2650'>0.78832E+02</wgt>
<wgt id='2651'>0.77447E+02</wgt>
<wgt id='2652'>0.80104E+02</wgt>
<wgt id='2700'>0.76159E+02</wgt>
<wgt id='2701'>0.77447E+02</wgt>
<wgt id='2702'>0.78189E+02</wgt>
<wgt id='2703'>0.79410E+02</wgt>
<wgt id='2704'>0.80104E+02</wgt>
<wgt id='2705'>0.81311E+02</wgt>
<wgt id='2800'>0.80089E+02</wgt>
<wgt id='4000'>0.79940E+02</wgt>
<wgt id='4001'>0.80236E+02</wgt>
<wgt id='4002'>0.79834E+02</wgt>
<wgt id='4003'>0.80233E+02</wgt>
<wgt id='4004'>0.79509E+02</wgt>
<wgt id='4005'>0.79599E+02</wgt>
<wgt id='4006'>0.80247E+02</wgt>
<wgt id='4007'>0.80812E+02</wgt>
<wgt id='4008'>0.79080E+02</wgt>
<wgt id='4009'>0.80244E+02</wgt>
<wgt id='4010'>0.79662E+02</wgt>
<wgt id='4011'>0.80229E+02</wgt>
<wgt id='4012'>0.79633E+02</wgt>
<wgt id='4013'>0.80276E+02</wgt>
<wgt id='4014'>0.79661E+02</wgt>
<wgt id='4015'>0.79532E+02</wgt>
<wgt id='4016'>0.80245E+02</wgt>
<wgt id='4017'>0.79868E+02</wgt>
<wgt id='4018'>0.80042E+02</wgt>
<wgt id='4019'>0.80379E+02</wgt>
<wgt id='4020'>0.79255E+02</wgt>
<wgt id='4021'>0.80008E+02</wgt>
<wgt id='4022'>0.79797E+02</wgt>
<wgt id='4023'>0.79799E+02</wgt>
<wgt id='4024'>0.80125E+02</wgt>
<wgt id='4025'>0.80154E+02</wgt>
<wgt id='4026'>0.79425E+02</wgt>
<wgt id='4027'>0.79916E+02</wgt>
<wgt id='4028'>0.79954E+02</wgt>
<wgt id='4029'>0.79556E+02</wgt>
<wgt id='4030'>0.79705E+02</wgt>
<wgt id='4031'>0.79759E+02</wgt>
<wgt id='4032'>0.79964E+02</wgt>
<wgt id='4033'>0.79976E+02</wgt>
<wgt id='4034'>0.79674E+02</wgt>
<wgt id='4035'>0.80740E+02</wgt>
<wgt id='4036'>0.79283E+02</wgt>
<wgt id='4037'>0.81199E+02</wgt>
<wgt id='4038'>0.78926E+02</wgt>
<wgt id='4039'>0.81265E+02</wgt>
<wgt id='4040'>0.78573E+02</wgt>
<wgt id='4041'>0.80003E+02</wgt>
<wgt id='4042'>0.79789E+02</wgt>
<wgt id='4043'>0.79266E+02</wgt>
<wgt id='4044'>0.79944E+02</wgt>
<wgt id='4045'>0.81287E+02</wgt>
<wgt id='4046'>0.79266E+02</wgt>
<wgt id='4047'>0.79211E+02</wgt>
<wgt id='4048'>0.80211E+02</wgt>
<wgt id='4049'>0.79867E+02</wgt>
<wgt id='4050'>0.79946E+02</wgt>
<wgt id='4051'>0.80996E+02</wgt>
<wgt id='4052'>0.78985E+02</wgt>
<wgt id='4053'>0.80400E+02</wgt>
<wgt id='4054'>0.79098E+02</wgt>
<wgt id='4055'>0.80291E+02</wgt>
<wgt id='4056'>0.79529E+02</wgt>
<wgt id='4057'>0.79219E+02</wgt>
<wgt id='4058'>0.80438E+02</wgt>
<wgt id='4100'>0.80642E+02</wgt>
<wgt id='4101'>0.80302E+02</wgt>
<wgt id='4102'>0.79557E+02</wgt>
<wgt id='4103'>0.79157E+02</wgt>
<wgt id='4200'>0.77385E+02</wgt>
<wgt id='4201'>0.77446E+02</wgt>
<wgt id='4202'>0.77497E+02</wgt>
<wgt id='4203'>0.76855E+02</wgt>
<wgt id='4204'>0.77785E+02</wgt>
<wgt id='4205'>0.77339E+02</wgt>
<wgt id='4206'>0.77536E+02</wgt>
<wgt id='4207'>0.77365E+02</wgt>
<wgt id='4208'>0.77414E+02</wgt>
<wgt id='4209'>0.77429E+02</wgt>
<wgt id='4210'>0.77428E+02</wgt>
<wgt id='4211'>0.78292E+02</wgt>
<wgt id='4212'>0.76659E+02</wgt>
<wgt id='4213'>0.77556E+02</wgt>
<wgt id='4214'>0.77102E+02</wgt>
<wgt id='4215'>0.77430E+02</wgt>
<wgt id='4216'>0.77127E+02</wgt>
<wgt id='4217'>0.77081E+02</wgt>
<wgt id='4218'>0.77596E+02</wgt>
<wgt id='4219'>0.76478E+02</wgt>
<wgt id='4220'>0.78203E+02</wgt>
<wgt id='4221'>0.76771E+02</wgt>
<wgt id='4222'>0.78058E+02</wgt>
<wgt id='4223'>0.77699E+02</wgt>
<wgt id='4224'>0.76838E+02</wgt>
<wgt id='4225'>0.76090E+02</wgt>
<wgt id='4226'>0.78584E+02</wgt>
<wgt id='4227'>0.77835E+02</wgt>
<wgt id='4228'>0.76993E+02</wgt>
<wgt id='4229'>0.76716E+02</wgt>
<wgt id='4230'>0.77841E+02</wgt>
<wgt id='4231'>0.77352E+02</wgt>
<wgt id='4232'>0.77367E+02</wgt>
<wgt id='4233'>0.77566E+02</wgt>
<wgt id='4234'>0.77002E+02</wgt>
<wgt id='4235'>0.77819E+02</wgt>
<wgt id='4236'>0.76979E+02</wgt>
<wgt id='4237'>0.77665E+02</wgt>
<wgt id='4238'>0.76883E+02</wgt>
<wgt id='4239'>0.77796E+02</wgt>
<wgt id='4240'>0.76309E+02</wgt>
<wgt id='4241'>0.77062E+02</wgt>
<wgt id='4242'>0.77722E+02</wgt>
<wgt id='4243'>0.77402E+02</wgt>
<wgt id='4244'>0.77484E+02</wgt>
<wgt id='4245'>0.76682E+02</wgt>
<wgt id='4246'>0.78025E+02</wgt>
<wgt id='4247'>0.77053E+02</wgt>
<wgt id='4248'>0.77548E+02</wgt>
<wgt id='4249'>0.78422E+02</wgt>
<wgt id='4250'>0.76136E+02</wgt>
<wgt id='4251'>0.76675E+02</wgt>
<wgt id='4252'>0.77742E+02</wgt>
<wgt id='4253'>0.77009E+02</wgt>
<wgt id='4254'>0.77597E+02</wgt>
<wgt id='4255'>0.77799E+02</wgt>
<wgt id='4256'>0.77041E+02</wgt>
<wgt id='4257'>0.75977E+02</wgt>
<wgt id='4258'>0.77796E+02</wgt>
<wgt id='4300'>0.79148E+02</wgt>
<wgt id='4301'>0.78719E+02</wgt>
<wgt id='5000'>0.79993E+02</wgt>
<wgt id='5001'>0.80029E+02</wgt>
<wgt id='5002'>0.79946E+02</wgt>
<wgt id='5003'>0.80010E+02</wgt>
<wgt id='5004'>0.79976E+02</wgt>
<wgt id='5005'>0.79996E+02</wgt>
<wgt id='5006'>0.79986E+02</wgt>
<wgt id='5007'>0.80059E+02</wgt>
<wgt id='5008'>0.79938E+02</wgt>
<wgt id='5009'>0.80092E+02</wgt>
<wgt id='5010'>0.79890E+02</wgt>
<wgt id='5011'>0.80178E+02</wgt>
<wgt id='5012'>0.79814E+02</wgt>
<wgt id='5013'>0.80092E+02</wgt>
<wgt id='5014'>0.79922E+02</wgt>
<wgt id='5015'>0.79601E+02</wgt>
<wgt id='5016'>0.79601E+02</wgt>
<wgt id='5017'>0.80426E+02</wgt>
<wgt id='5018'>0.79700E+02</wgt>
<wgt id='5019'>0.80302E+02</wgt>
<wgt id='5020'>0.79569E+02</wgt>
<wgt id='5021'>0.80096E+02</wgt>
<wgt id='5022'>0.79830E+02</wgt>
<wgt id='5023'>0.79899E+02</wgt>
<wgt id='5024'>0.80216E+02</wgt>
<wgt id='5025'>0.79685E+02</wgt>
<wgt id='5026'>0.80338E+02</wgt>
<wgt id='5027'>0.80028E+02</wgt>
<wgt id='5028'>0.79898E+02</wgt>
<wgt id='5029'>0.80648E+02</wgt>
<wgt id='5030'>0.79621E+02</wgt>
<wgt id='5031'>0.79665E+02</wgt>
<wgt id='5032'>0.80980E+02</wgt>
<wgt id='5033'>0.79990E+02</wgt>
<wgt id='5034'>0.79995E+02</wgt>
<wgt id='5035'>0.79997E+02</wgt>
<wgt id='5036'>0.79989E+02</wgt>
<wgt id='5037'>0.79873E+02</wgt>
<wgt id='5038'>0.80061E+02</wgt>
<wgt id='5039'>0.80188E+02</wgt>
<wgt id='5040'>0.79512E+02</wgt>
<wgt id='5041'>0.80155E+02</wgt>
<wgt id='5042'>0.79832E+02</wgt>
<wgt id='5043'>0.80097E+02</wgt>
<wgt id='5044'>0.79945E+02</wgt>
<wgt id='5045'>0.79912E+02</wgt>
<wgt id='5046'>0.80080E+02</wgt>
<wgt id='5047'>0.80035E+02</wgt>
<wgt id='5048'>0.79809E+02</wgt>
<wgt id='5049'>0.79950E+02</wgt>
<wgt id='5050'>0.80089E+02</wgt>
<wgt id='5051'>0.80143E+02</wgt>
<wgt id='5052'>0.79864E+02</wgt>
<wgt id='5053'>0.79882E+02</wgt>
<wgt id='5054'>0.80159E+02</wgt>
<wgt id='5055'>0.80060E+02</wgt>
<wgt id='5056'>0.80012E+02</wgt>
<wgt id='5057'>0.79738E+02</wgt>
<wgt id='5058'>0.80171E+02</wgt>
<wgt id='5059'>0.79956E+02</wgt>
<wgt id='5060'>0.80023E+02</wgt>
<wgt id='5061'>0.80210E+02</wgt>
<wgt id='5062'>0.80061E+02</wgt>
<wgt id='5063'>0.80264E+02</wgt>
<wgt id='5064'>0.79971E+02</wgt>
<wgt id='5100'>0.79993E+02</wgt>
<wgt id='5101'>0.80006E+02</wgt>
<wgt id='6000'>0.79851E+02</wgt>
<wgt id='6001'>0.79884E+02</wgt>
<wgt id='6002'>0.79887E+02</wgt>
<wgt id='6003'>0.79741E+02</wgt>
<wgt id='6004'>0.79844E+02</wgt>
<wgt id='6005'>0.79622E+02</wgt>
<wgt id='6006'>0.80044E+02</wgt>
<wgt id='6007'>0.79667E+02</wgt>
<wgt id='6008'>0.79395E+02</wgt>
<wgt id='6009'>0.79972E+02</wgt>
<wgt id='6010'>0.78838E+02</wgt>
<wgt id='6011'>0.79826E+02</wgt>
<wgt id='6012'>0.80065E+02</wgt>
<wgt id='6013'>0.79576E+02</wgt>
<wgt id='6014'>0.79724E+02</wgt>
<wgt id='6015'>0.79415E+02</wgt>
<wgt id='6016'>0.79988E+02</wgt>
<wgt id='6017'>0.79736E+02</wgt>
<wgt id='6018'>0.79627E+02</wgt>
<wgt id='6019'>0.79850E+02</wgt>
<wgt id='6020'>0.80014E+02</wgt>
<wgt id='6021'>0.79822E+02</wgt>
<wgt id='6022'>0.79926E+02</wgt>
<wgt id='6023'>0.79843E+02</wgt>
<wgt id='6024'>0.79916E+02</wgt>
<wgt id='6025'>0.80104E+02</wgt>
<wgt id='6026'>0.79820E+02</wgt>
<wgt id='6027'>0.79857E+02</wgt>
<wgt id='6028'>0.79685E+02</wgt>
<wgt id='6029'>0.79766E+02</wgt>
<wgt id='6030'>0.79890E+02</wgt>
<wgt id='6031'>0.79675E+02</wgt>
<wgt id='6032'>0.79885E+02</wgt>
<wgt id='6033'>0.79780E+02</wgt>
<wgt id='6034'>0.80076E+02</wgt>
<wgt id='6035'>0.79892E+02</wgt>
<wgt id='6036'>0.80295E+02</wgt>
<wgt id='6037'>0.79852E+02</wgt>
<wgt id='6038'>0.79867E+02</wgt>
<wgt id='6039'>0.79976E+02</wgt>
<wgt id='6040'>0.79840E+02</wgt>
<wgt id='6041'>0.78478E+02</wgt>
<wgt id='6042'>0.80500E+02</wgt>
<wgt id='7000'>0.79899E+02</wgt>
<wgt id='7001'>0.79232E+02</wgt>
<wgt id='7002'>0.79396E+02</wgt>
<wgt id='7003'>0.79313E+02</wgt>
<wgt id='7004'>0.79315E+02</wgt>
<wgt id='7005'>0.79427E+02</wgt>
<wgt id='7006'>0.79201E+02</wgt>
<wgt id='7007'>0.79791E+02</wgt>
<wgt id='7008'>0.78850E+02</wgt>
<wgt id='7009'>0.79022E+02</wgt>
<wgt id='7010'>0.79617E+02</wgt>
<wgt id='7011'>0.79578E+02</wgt>
<wgt id='7012'>0.79054E+02</wgt>
<wgt id='7013'>0.79179E+02</wgt>
<wgt id='7014'>0.79443E+02</wgt>
<wgt id='7015'>0.79267E+02</wgt>
<wgt id='7016'>0.79170E+02</wgt>
<wgt id='7017'>0.79312E+02</wgt>
<wgt id='7018'>0.79316E+02</wgt>
<wgt id='7019'>0.79238E+02</wgt>
<wgt id='7020'>0.79397E+02</wgt>
<wgt id='7021'>0.79461E+02</wgt>
<wgt id='7022'>0.79139E+02</wgt>
<wgt id='7023'>0.78918E+02</wgt>
<wgt id='7024'>0.79717E+02</wgt>
<wgt id='7025'>0.78369E+02</wgt>
<wgt id='7026'>0.80167E+02</wgt>
<wgt id='7027'>0.78942E+02</wgt>
<wgt id='7028'>0.79747E+02</wgt>
<wgt id='8000'>0.80259E+02</wgt>
<wgt id='8001'>0.80247E+02</wgt>
<wgt id='8002'>0.80283E+02</wgt>
<wgt id='8003'>0.80261E+02</wgt>
<wgt id='8004'>0.80257E+02</wgt>
<wgt id='8005'>0.80100E+02</wgt>
<wgt id='8006'>0.80324E+02</wgt>
<wgt id='8007'>0.80380E+02</wgt>
<wgt id='8008'>0.80435E+02</wgt>
<wgt id='8009'>0.80595E+02</wgt>
<wgt id='8010'>0.80182E+02</wgt>
<wgt id='8011'>0.80267E+02</wgt>
<wgt id='8012'>0.79989E+02</wgt>
<wgt id='8013'>0.80117E+02</wgt>
<wgt id='8014'>0.80419E+02</wgt>
<wgt id='8015'>0.80209E+02</wgt>
<wgt id='8016'>0.80333E+02</wgt>
<wgt id='8017'>0.80308E+02</wgt>
<wgt id='8018'>0.80440E+02</wgt>
<wgt id='8019'>0.80308E+02</wgt>
<wgt id='8020'>0.80211E+02</wgt>
<wgt id='8021'>0.80193E+02</wgt>
<wgt id='8022'>0.80169E+02</wgt>
<wgt id='8023'>0.80180E+02</wgt>
<wgt id='8024'>0.80046E+02</wgt>
<wgt id='8025'>0.80233E+02</wgt>
<wgt id='8026'>0.80365E+02</wgt>
<wgt id='8027'>0.80291E+02</wgt>
<wgt id='8028'>0.80315E+02</wgt>
<wgt id='8029'>0.80250E+02</wgt>
<wgt id='3000'>0.81104E+02</wgt>
<wgt id='3001'>0.80724E+02</wgt>
<wgt id='3002'>0.79512E+02</wgt>
<wgt id='3003'>0.79050E+02</wgt>
<wgt id='3004'>0.81932E+02</wgt>
<wgt id='3005'>0.81719E+02</wgt>
<wgt id='3006'>0.83244E+02</wgt>
<wgt id='3007'>0.80675E+02</wgt>
<wgt id='3008'>0.80658E+02</wgt>
<wgt id='3009'>0.80956E+02</wgt>
<wgt id='3010'>0.82754E+02</wgt>
<wgt id='3011'>0.81436E+02</wgt>
<wgt id='3012'>0.81374E+02</wgt>
<wgt id='3013'>0.80575E+02</wgt>
<wgt id='3014'>0.80805E+02</wgt>
<wgt id='3015'>0.80621E+02</wgt>
<wgt id='3016'>0.81628E+02</wgt>
<wgt id='3017'>0.82746E+02</wgt>
<wgt id='3018'>0.80833E+02</wgt>
<wgt id='3019'>0.79843E+02</wgt>
<wgt id='3020'>0.80889E+02</wgt>
<wgt id='3021'>0.79505E+02</wgt>
<wgt id='3022'>0.79533E+02</wgt>
<wgt id='3023'>0.79845E+02</wgt>
<wgt id='3024'>0.80946E+02</wgt>
<wgt id='3025'>0.80197E+02</wgt>
<wgt id='3026'>0.80709E+02</wgt>
<wgt id='3027'>0.79855E+02</wgt>
<wgt id='3028'>0.80237E+02</wgt>
<wgt id='3029'>0.82257E+02</wgt>
<wgt id='3030'>0.81884E+02</wgt>
<wgt id='3031'>0.80938E+02</wgt>
<wgt id='3032'>0.81951E+02</wgt>
<wgt id='3033'>0.80400E+02</wgt>
<wgt id='3034'>0.82008E+02</wgt>
<wgt id='3035'>0.81483E+02</wgt>
<wgt id='3036'>0.81263E+02</wgt>
<wgt id='3037'>0.80765E+02</wgt>
<wgt id='3038'>0.81252E+02</wgt>
<wgt id='3039'>0.80627E+02</wgt>
<wgt id='3040'>0.81388E+02</wgt>
<wgt id='3041'>0.81798E+02</wgt>
<wgt id='3042'>0.81221E+02</wgt>
<wgt id='3043'>0.81434E+02</wgt>
<wgt id='3044'>0.81345E+02</wgt>
<wgt id='3045'>0.81531E+02</wgt>
<wgt id='3046'>0.81788E+02</wgt>
<wgt id='3047'>0.79982E+02</wgt>
<wgt id='3048'>0.80739E+02</wgt>
<wgt id='3049'>0.80239E+02</wgt>
<wgt id='3050'>0.81669E+02</wgt>
<wgt id='3051'>0.80698E+02</wgt>
<wgt id='3052'>0.80234E+02</wgt>
<wgt id='3053'>0.80832E+02</wgt>
<wgt id='3054'>0.79663E+02</wgt>
<wgt id='3055'>0.80799E+02</wgt>
<wgt id='3056'>0.81105E+02</wgt>
<wgt id='3057'>0.80353E+02</wgt>
<wgt id='3058'>0.80760E+02</wgt>
<wgt id='3059'>0.82461E+02</wgt>
<wgt id='3060'>0.81103E+02</wgt>
<wgt id='3061'>0.80528E+02</wgt>
<wgt id='3062'>0.80792E+02</wgt>
<wgt id='3063'>0.80600E+02</wgt>
<wgt id='3064'>0.81417E+02</wgt>
<wgt id='3065'>0.80582E+02</wgt>
<wgt id='3066'>0.81816E+02</wgt>
<wgt id='3067'>0.79636E+02</wgt>
<wgt id='3068'>0.81370E+02</wgt>
<wgt id='3069'>0.81244E+02</wgt>
<wgt id='3070'>0.80392E+02</wgt>
<wgt id='3071'>0.81526E+02</wgt>
<wgt id='3072'>0.79783E+02</wgt>
<wgt id='3073'>0.81996E+02</wgt>
<wgt id='3074'>0.81245E+02</wgt>
<wgt id='3075'>0.82256E+02</wgt>
<wgt id='3076'>0.82450E+02</wgt>
<wgt id='3077'>0.81181E+02</wgt>
<wgt id='3078'>0.80053E+02</wgt>
<wgt id='3079'>0.81206E+02</wgt>
<wgt id='3080'>0.81932E+02</wgt>
<wgt id='3081'>0.80475E+02</wgt>
<wgt id='3082'>0.81628E+02</wgt>
<wgt id='3083'>0.81475E+02</wgt>
<wgt id='3084'>0.81150E+02</wgt>
<wgt id='3085'>0.79399E+02</wgt>
<wgt id='3086'>0.80644E+02</wgt>
<wgt id='3087'>0.81271E+02</wgt>
<wgt id='3088'>0.82553E+02</wgt>
<wgt id='3089'>0.84510E+02</wgt>
<wgt id='3090'>0.81933E+02</wgt>
<wgt id='3091'>0.81030E+02</wgt>
<wgt id='3092'>0.82524E+02</wgt>
<wgt id='3093'>0.81861E+02</wgt>
<wgt id='3094'>0.81449E+02</wgt>
<wgt id='3095'>0.81572E+02</wgt>
<wgt id='3096'>0.80179E+02</wgt>
<wgt id='3097'>0.81668E+02</wgt>
<wgt id='3098'>0.82250E+02</wgt>
<wgt id='3099'>0.80599E+02</wgt>
<wgt id='3100'>0.81119E+02</wgt>
<wgt id='3200'>0.78862E+02</wgt>
<wgt id='3201'>0.79263E+02</wgt>
<wgt id='3202'>0.77717E+02</wgt>
<wgt id='3203'>0.79116E+02</wgt>
<wgt id='3204'>0.77984E+02</wgt>
<wgt id='3205'>0.79080E+02</wgt>
<wgt id='3206'>0.79695E+02</wgt>
<wgt id='3207'>0.79834E+02</wgt>
<wgt id='3208'>0.79514E+02</wgt>
<wgt id='3209'>0.78581E+02</wgt>
<wgt id='3210'>0.78830E+02</wgt>
<wgt id='3211'>0.79531E+02</wgt>
<wgt id='3212'>0.78516E+02</wgt>
<wgt id='3213'>0.78636E+02</wgt>
<wgt id='3214'>0.78209E+02</wgt>
<wgt id='3215'>0.78981E+02</wgt>
<wgt id='3216'>0.79621E+02</wgt>
<wgt id='3217'>0.79374E+02</wgt>
<wgt id='3218'>0.79356E+02</wgt>
<wgt id='3219'>0.78972E+02</wgt>
<wgt id='3220'>0.78234E+02</wgt>
<wgt id='3221'>0.79385E+02</wgt>
<wgt id='3222'>0.79776E+02</wgt>
<wgt id='3223'>0.79270E+02</wgt>
<wgt id='3224'>0.78628E+02</wgt>
<wgt id='3225'>0.79788E+02</wgt>
<wgt id='3226'>0.78611E+02</wgt>
<wgt id='3227'>0.78061E+02</wgt>
<wgt id='3228'>0.78101E+02</wgt>
<wgt id='3229'>0.79520E+02</wgt>
<wgt id='3230'>0.79311E+02</wgt>
<wgt id='3231'>0.78939E+02</wgt>
<wgt id='3232'>0.79145E+02</wgt>
<wgt id='3233'>0.79145E+02</wgt>
<wgt id='3234'>0.78462E+02</wgt>
<wgt id='3235'>0.78672E+02</wgt>
<wgt id='3236'>0.78096E+02</wgt>
<wgt id='3237'>0.78935E+02</wgt>
<wgt id='3238'>0.78183E+02</wgt>
<wgt id='3239'>0.78799E+02</wgt>
<wgt id='3240'>0.78325E+02</wgt>
<wgt id='3241'>0.79652E+02</wgt>
<wgt id='3242'>0.78191E+02</wgt>
<wgt id='3243'>0.78358E+02</wgt>
<wgt id='3244'>0.78581E+02</wgt>
<wgt id='3245'>0.79174E+02</wgt>
<wgt id='3246'>0.77646E+02</wgt>
<wgt id='3247'>0.78783E+02</wgt>
<wgt id='3248'>0.78359E+02</wgt>
<wgt id='3249'>0.78210E+02</wgt>
<wgt id='3250'>0.79477E+02</wgt>
<wgt id='3251'>0.78512E+02</wgt>
<wgt id='3252'>0.79073E+02</wgt>
<wgt id='3253'>0.78729E+02</wgt>
<wgt id='3254'>0.78852E+02</wgt>
<wgt id='3255'>0.78547E+02</wgt>
<wgt id='3256'>0.78796E+02</wgt>
<wgt id='3257'>0.78898E+02</wgt>
<wgt id='3258'>0.78851E+02</wgt>
<wgt id='3259'>0.78383E+02</wgt>
<wgt id='3260'>0.78754E+02</wgt>
<wgt id='3261'>0.78829E+02</wgt>
<wgt id='3262'>0.78827E+02</wgt>
<wgt id='3263'>0.79778E+02</wgt>
<wgt id='3264'>0.78944E+02</wgt>
<wgt id='3265'>0.79167E+02</wgt>
<wgt id='3266'>0.78935E+02</wgt>
<wgt id='3267'>0.78659E+02</wgt>
<wgt id='3268'>0.79100E+02</wgt>
<wgt id='3269'>0.78999E+02</wgt>
<wgt id='3270'>0.79601E+02</wgt>
<wgt id='3271'>0.79180E+02</wgt>
<wgt id='3272'>0.79192E+02</wgt>
<wgt id='3273'>0.78680E+02</wgt>
<wgt id='3274'>0.78496E+02</wgt>
<wgt id='3275'>0.79203E+02</wgt>
<wgt id='3276'>0.78395E+02</wgt>
<wgt id='3277'>0.78934E+02</wgt>
<wgt id='3278'>0.78825E+02</wgt>
<wgt id='3279'>0.79351E+02</wgt>
<wgt id='3280'>0.78558E+02</wgt>
<wgt id='3281'>0.78932E+02</wgt>
<wgt id='3282'>0.78992E+02</wgt>
<wgt id='3283'>0.78981E+02</wgt>
<wgt id='3284'>0.78851E+02</wgt>
<wgt id='3285'>0.78385E+02</wgt>
<wgt id='3286'>0.78305E+02</wgt>
<wgt id='3287'>0.78936E+02</wgt>
<wgt id='3288'>0.79162E+02</wgt>
<wgt id='3289'>0.80043E+02</wgt>
<wgt id='3290'>0.79066E+02</wgt>
<wgt id='3291'>0.77664E+02</wgt>
<wgt id='3292'>0.78852E+02</wgt>
<wgt id='3293'>0.78721E+02</wgt>
<wgt id='3294'>0.77961E+02</wgt>
<wgt id='3295'>0.78725E+02</wgt>
<wgt id='3296'>0.79731E+02</wgt>
<wgt id='3297'>0.78801E+02</wgt>
<wgt id='3298'>0.78407E+02</wgt>
<wgt id='3299'>0.78760E+02</wgt>
<wgt id='3300'>0.79176E+02</wgt>
<wgt id='3301'>0.77447E+02</wgt>
<wgt id='3302'>0.80104E+02</wgt>
<wgt id='3400'>0.78390E+02</wgt>
<wgt id='3401'>0.78306E+02</wgt>
<wgt id='3402'>0.77326E+02</wgt>
<wgt id='3403'>0.79281E+02</wgt>
<wgt id='3404'>0.79790E+02</wgt>
<wgt id='3405'>0.78897E+02</wgt>
<wgt id='3406'>0.79125E+02</wgt>
<wgt id='3407'>0.78177E+02</wgt>
<wgt id='3408'>0.79621E+02</wgt>
<wgt id='3409'>0.79293E+02</wgt>
<wgt id='3410'>0.78563E+02</wgt>
<wgt id='3411'>0.79410E+02</wgt>
<wgt id='3412'>0.79194E+02</wgt>
<wgt id='3413'>0.78346E+02</wgt>
<wgt id='3414'>0.77822E+02</wgt>
<wgt id='3415'>0.78092E+02</wgt>
<wgt id='3416'>0.77705E+02</wgt>
<wgt id='3417'>0.78764E+02</wgt>
<wgt id='3418'>0.77627E+02</wgt>
<wgt id='3419'>0.77818E+02</wgt>
<wgt id='3420'>0.78247E+02</wgt>
<wgt id='3421'>0.78229E+02</wgt>
<wgt id='3422'>0.78850E+02</wgt>
<wgt id='3423'>0.78872E+02</wgt>
<wgt id='3424'>0.78982E+02</wgt>
<wgt id='3425'>0.78129E+02</wgt>
<wgt id='3426'>0.78229E+02</wgt>
<wgt id='3427'>0.78076E+02</wgt>
<wgt id='3428'>0.79400E+02</wgt>
<wgt id='3429'>0.77664E+02</wgt>
<wgt id='3430'>0.78718E+02</wgt>
<wgt id='3431'>0.78576E+02</wgt>
<wgt id='3432'>0.78787E+02</wgt>
<wgt id='3433'>0.77460E+02</wgt>
<wgt id='3434'>0.78665E+02</wgt>
<wgt id='3435'>0.78693E+02</wgt>
<wgt id='3436'>0.78196E+02</wgt>
<wgt id='3437'>0.78827E+02</wgt>
<wgt id='3438'>0.77645E+02</wgt>
<wgt id='3439'>0.78247E+02</wgt>
<wgt id='3440'>0.78426E+02</wgt>
<wgt id='3441'>0.78135E+02</wgt>
<wgt id='3442'>0.76983E+02</wgt>
<wgt id='3443'>0.78498E+02</wgt>
<wgt id='3444'>0.77995E+02</wgt>
<wgt id='3445'>0.78173E+02</wgt>
<wgt id='3446'>0.78552E+02</wgt>
<wgt id='3447'>0.79028E+02</wgt>
<wgt id='3448'>0.79528E+02</wgt>
<wgt id='3449'>0.79040E+02</wgt>
<wgt id='3450'>0.78290E+02</wgt>
<wgt id='3451'>0.79350E+02</wgt>
<wgt id='3452'>0.78116E+02</wgt>
<wgt id='3453'>0.77515E+02</wgt>
<wgt id='3454'>0.77915E+02</wgt>
<wgt id='3455'>0.79020E+02</wgt>
<wgt id='3456'>0.78656E+02</wgt>
<wgt id='3457'>0.79190E+02</wgt>
<wgt id='3458'>0.78324E+02</wgt>
<wgt id='3459'>0.78257E+02</wgt>
<wgt id='3460'>0.78192E+02</wgt>
<wgt id='3461'>0.77537E+02</wgt>
<wgt id='3462'>0.78169E+02</wgt>
<wgt id='3463'>0.77430E+02</wgt>
<wgt id='3464'>0.78965E+02</wgt>
<wgt id='3465'>0.78608E+02</wgt>
<wgt id='3466'>0.78683E+02</wgt>
<wgt id='3467'>0.78164E+02</wgt>
<wgt id='3468'>0.77585E+02</wgt>
<wgt id='3469'>0.78180E+02</wgt>
<wgt id='3470'>0.78252E+02</wgt>
<wgt id='3471'>0.78200E+02</wgt>
<wgt id='3472'>0.77616E+02</wgt>
<wgt id='3473'>0.79085E+02</wgt>
<wgt id='3474'>0.78113E+02</wgt>
<wgt id='3475'>0.78558E+02</wgt>
<wgt id='3476'>0.78434E+02</wgt>
<wgt id='3477'>0.77842E+02</wgt>
<wgt id='3478'>0.79093E+02</wgt>
<wgt id='3479'>0.78912E+02</wgt>
<wgt id='3480'>0.78406E+02</wgt>
<wgt id='3481'>0.78832E+02</wgt>
<wgt id='3482'>0.78430E+02</wgt>
<wgt id='3483'>0.77609E+02</wgt>
<wgt id='3484'>0.77889E+02</wgt>
<wgt id='3485'>0.78073E+02</wgt>
<wgt id='3486'>0.76782E+02</wgt>
<wgt id='3487'>0.78506E+02</wgt>
<wgt id='3488'>0.78971E+02</wgt>
<wgt id='3489'>0.77535E+02</wgt>
<wgt id='3490'>0.78833E+02</wgt>
<wgt id='3491'>0.79082E+02</wgt>
<wgt id='3492'>0.78386E+02</wgt>
<wgt id='3493'>0.78513E+02</wgt>
<wgt id='3494'>0.76424E+02</wgt>
<wgt id='3495'>0.78484E+02</wgt>
<wgt id='3496'>0.77518E+02</wgt>
<wgt id='3497'>0.77914E+02</wgt>
<wgt id='3498'>0.79103E+02</wgt>
<wgt id='3499'>0.78154E+02</wgt>
<wgt id='3500'>0.79302E+02</wgt>
</rwgt>
</event>
<event>
     13 322200  8.11039E+01  7.59132E+00 -1.00000E+00  2.05990E-01
      21    -1     0     0   503   504  0.000000000E+00  0.000000000E+00  1.346903279E+03  1.346903279E+03  0.000000000E+00  0.00000E+00  9.000E+00
      21    -1     0     0   502   503  0.000000000E+00  0.000000000E+00 -3.159061591E+01  3.159061591E+01  0.000000000E+00  0.00000E+00  9.000E+00
       6     2     1     2   502     0 -7.590947996E+01  1.033333655E+01  4.124737029E+02  4.539291645E+02  1.733438889E+02  0.00000E+00  9.000E+00
      -6     2     1     2     0   505  7.199820401E+01 -1.683949532E+01  8.115535597E+02  8.329642254E+02  1.724613305E+02  0.00000E+00  9.000E+00
      21     1     1     2   505   504  3.911275947E+00  6.506158769E+00  9.128540056E+01  9.160050512E+01  1.348699152E-06  0.00000E+00  9.000E+00
      24     2     3     3     0     0  2.623828188E+01 -7.039505992E+00  1.788598720E+02  1.983181191E+02  8.124789534E+01  0.00000E+00  9.000E+00
       5     1     3     3   502     0 -1.021477618E+02  1.737284254E+01  2.336138309E+02  2.556110453E+02  5.060000000E+00  0.00000E+00 -1.000E+00
     -24     2     4     4     0     0 -2.353371301E+01  8.082201370E+00  4.771785073E+02  4.842813933E+02  7.880344162E+01  0.00000E+00  9.000E+00
      -5     1     4     4     0   505  9.553191703E+01 -2.492169669E+01  3.343750524E+02  3.486828321E+02  5.060000000E+00  0.00000E+00  1.000E+00
     -13     1     6     6     0     0 -2.058600649E+01  9.211823781E+00  1.490074333E+01  2.703117987E+01  1.057000000E-01  0.00000E+00  1.000E+00
      14     1     6     6     0     0  4.682428838E+01 -1.625132977E+01  1.639591286E+02  1.712869393E+02  0.000000000E+00  0.00000E+00 -1.000E+00
      15     1     8     8     0     0 -2.912925534E+00 -2.654193242E+01  3.464581243E+02  3.474900703E+02  1.777000000E+00  0.00000E+00 -1.000E+00
     -16     1     8     8     0     0 -2.062078748E+01  3.462413379E+01  1.307203830E+02  1.367913230E+02  0.000000000E+00  0.00000E+00  1.000E+00
#rwgt            1           1   617.51027468627683               10       39019           0
<rwgt>
<wgt id='1001'>0.81104E+02</wgt>
<wgt id='1002'>0.93331E+02</wgt>
<wgt id='1003'>0.68029E+02</wgt>
<wgt id='1004'>0.73106E+02</wgt>
<wgt id='1005'>0.81892E+02</wgt>
<wgt id='1006'>0.63666E+02</wgt>
<wgt id='1007'>0.89576E+02</wgt>
<wgt id='1008'>0.10699E+03</wgt>
<wgt id='1009'>0.71030E+02</wgt>
<wgt id='2000'>0.81104E+02</wgt>
<wgt id='2001'>0.81020E+02</wgt>
<wgt id='2002'>0.81118E+02</wgt>
<wgt id='2003'>0.81079E+02</wgt>
<wgt id='2004'>0.81502E+02</wgt>
<wgt id='2005'>0.80682E+02</wgt>
<wgt id='2006'>0.81175E+02</wgt>
<wgt id='2007'>0.81151E+02</wgt>
<wgt id='2008'>0.81030E+02</wgt>
<wgt id='2009'>0.81170E+02</wgt>
<wgt id='2010'>0.80948E+02</wgt>
<wgt id='2011'>0.81347E+02</wgt>
<wgt id='2012'>0.81420E+02</wgt>
<wgt id='2013'>0.80985E+02</wgt>
<wgt id='2014'>0.81045E+02</wgt>
<wgt id='2015'>0.81313E+02</wgt>
<wgt id='2016'>0.80908E+02</wgt>
<wgt id='2017'>0.81038E+02</wgt>
<wgt id='2018'>0.80698E+02</wgt>
<wgt id='2019'>0.80993E+02</wgt>
<wgt id='2020'>0.80886E+02</wgt>
<wgt id='2021'>0.81203E+02</wgt>
<wgt id='2022'>0.81167E+02</wgt>
<wgt id='2023'>0.80749E+02</wgt>
<wgt id='2024'>0.80979E+02</wgt>
<wgt id='2025'>0.81075E+02</wgt>
<wgt id='2026'>0.81020E+02</wgt>
<wgt id='2027'>0.81682E+02</wgt>
<wgt id='2028'>0.80300E+02</wgt>
<wgt id='2029'>0.80878E+02</wgt>
<wgt id='2030'>0.81374E+02</wgt>
<wgt id='2031'>0.80737E+02</wgt>
<wgt id='2032'>0.80989E+02</wgt>
<wgt id='2033'>0.80934E+02</wgt>
<wgt id='2034'>0.80711E+02</wgt>
<wgt id='2035'>0.81268E+02</wgt>
<wgt id='2036'>0.81240E+02</wgt>
<wgt id='2037'>0.80926E+02</wgt>
<wgt id='2038'>0.80985E+02</wgt>
<wgt id='2039'>0.80979E+02</wgt>
<wgt id='2040'>0.80944E+02</wgt>
<wgt id='2041'>0.80876E+02</wgt>
<wgt id='2042'>0.81283E+02</wgt>
<wgt id='2043'>0.81108E+02</wgt>
<wgt id='2044'>0.81209E+02</wgt>
<wgt id='2045'>0.81170E+02</wgt>
<wgt id='2046'>0.80915E+02</wgt>
<wgt id='2047'>0.81146E+02</wgt>
<wgt id='2048'>0.81099E+02</wgt>
<wgt id='2049'>0.80992E+02</wgt>
<wgt id='2050'>0.81012E+02</wgt>
<wgt id='2051'>0.80994E+02</wgt>
<wgt id='2052'>0.81299E+02</wgt>
<wgt id='2053'>0.81119E+02</wgt>
<wgt id='2054'>0.81077E+02</wgt>
<wgt id='2055'>0.80992E+02</wgt>
<wgt id='2056'>0.81025E+02</wgt>
<wgt id='2057'>0.81141E+02</wgt>
<wgt id='2058'>0.81172E+02</wgt>
<wgt id='2059'>0.81134E+02</wgt>
<wgt id='2060'>0.81060E+02</wgt>
<wgt id='2061'>0.81033E+02</wgt>
<wgt id='2062'>0.81210E+02</wgt>
<wgt id='2063'>0.81096E+02</wgt>
<wgt id='2064'>0.81119E+02</wgt>
<wgt id='2065'>0.81197E+02</wgt>
<wgt id='2066'>0.81054E+02</wgt>
<wgt id='2067'>0.81031E+02</wgt>
<wgt id='2068'>0.81220E+02</wgt>
<wgt id='2069'>0.81088E+02</wgt>
<wgt id='2070'>0.81147E+02</wgt>
<wgt id='2071'>0.81055E+02</wgt>
<wgt id='2072'>0.81066E+02</wgt>
<wgt id='2073'>0.81137E+02</wgt>
<wgt id='2074'>0.81067E+02</wgt>
<wgt id='2075'>0.81090E+02</wgt>
<wgt id='2076'>0.81096E+02</wgt>
<wgt id='2077'>0.81168E+02</wgt>
<wgt id='2078'>0.81121E+02</wgt>
<wgt id='2079'>0.81064E+02</wgt>
<wgt id='2080'>0.81118E+02</wgt>
<wgt id='2081'>0.81079E+02</wgt>
<wgt id='2082'>0.81126E+02</wgt>
<wgt id='2083'>0.81199E+02</wgt>
<wgt id='2084'>0.81093E+02</wgt>
<wgt id='2085'>0.81125E+02</wgt>
<wgt id='2086'>0.81100E+02</wgt>
<wgt id='2087'>0.81118E+02</wgt>
<wgt id='2088'>0.81094E+02</wgt>
<wgt id='2089'>0.81076E+02</wgt>
<wgt id='2090'>0.81131E+02</wgt>
<wgt id='2091'>0.81115E+02</wgt>
<wgt id='2092'>0.81156E+02</wgt>
<wgt id='2093'>0.81068E+02</wgt>
<wgt id='2094'>0.81098E+02</wgt>
<wgt id='2095'>0.81147E+02</wgt>
<wgt id='2096'>0.81081E+02</wgt>
<wgt id='2097'>0.81132E+02</wgt>
<wgt id='2098'>0.81113E+02</wgt>
<wgt id='2099'>0.81123E+02</wgt>
<wgt id='2100'>0.81104E+02</wgt>
<wgt id='2101'>0.78923E+02</wgt>
<wgt id='2102'>0.82864E+02</wgt>
<wgt id='2200'>0.80752E+02</wgt>
<wgt id='2201'>0.70975E+02</wgt>
<wgt id='2202'>0.72936E+02</wgt>
<wgt id='2203'>0.75243E+02</wgt>
<wgt id='2204'>0.76541E+02</wgt>
<wgt id='2205'>0.79593E+02</wgt>
<wgt id='2206'>0.82088E+02</wgt>
<wgt id='2207'>0.84786E+02</wgt>
<wgt id='2208'>0.87618E+02</wgt>
<wgt id='2300'>0.87162E+02</wgt>
<wgt id='2301'>0.87211E+02</wgt>
<wgt id='2302'>0.87136E+02</wgt>
<wgt id='2303'>0.87149E+02</wgt>
<wgt id='2304'>0.87495E+02</wgt>
<wgt id='2305'>0.87171E+02</wgt>
<wgt id='2306'>0.87131E+02</wgt>
<wgt id='2307'>0.87106E+02</wgt>
<wgt id='2308'>0.86976E+02</wgt>
<wgt id='2309'>0.86944E+02</wgt>
<wgt id='2310'>0.86925E+02</wgt>
<wgt id='2311'>0.87253E+02</wgt>
<wgt id='2312'>0.87361E+02</wgt>
<wgt id='2313'>0.87209E+02</wgt>
<wgt id='2314'>0.87127E+02</wgt>
<wgt id='2315'>0.87127E+02</wgt>
<wgt id='2316'>0.87261E+02</wgt>
<wgt id='2317'>0.87122E+02</wgt>
<wgt id='2318'>0.87293E+02</wgt>
<wgt id='2319'>0.87197E+02</wgt>
<wgt id='2320'>0.87194E+02</wgt>
<wgt id='2321'>0.87161E+02</wgt>
<wgt id='2322'>0.87064E+02</wgt>
<wgt id='2323'>0.86985E+02</wgt>
<wgt id='2324'>0.87036E+02</wgt>
<wgt id='2325'>0.87235E+02</wgt>
<wgt id='2326'>0.87217E+02</wgt>
<wgt id='2327'>0.87217E+02</wgt>
<wgt id='2328'>0.86904E+02</wgt>
<wgt id='2329'>0.87153E+02</wgt>
<wgt id='2330'>0.87552E+02</wgt>
<wgt id='2331'>0.87229E+02</wgt>
<wgt id='2332'>0.87096E+02</wgt>
<wgt id='2333'>0.87124E+02</wgt>
<wgt id='2334'>0.87186E+02</wgt>
<wgt id='2335'>0.86542E+02</wgt>
<wgt id='2336'>0.87071E+02</wgt>
<wgt id='2337'>0.87541E+02</wgt>
<wgt id='2338'>0.87079E+02</wgt>
<wgt id='2339'>0.86843E+02</wgt>
<wgt id='2340'>0.87540E+02</wgt>
<wgt id='2341'>0.87454E+02</wgt>
<wgt id='2342'>0.87216E+02</wgt>
<wgt id='2343'>0.87204E+02</wgt>
<wgt id='2344'>0.87038E+02</wgt>
<wgt id='2345'>0.86922E+02</wgt>
<wgt id='2346'>0.87809E+02</wgt>
<wgt id='2347'>0.87354E+02</wgt>
<wgt id='2348'>0.86949E+02</wgt>
<wgt id='2349'>0.87211E+02</wgt>
<wgt id='2350'>0.86547E+02</wgt>
<wgt id='2351'>0.87460E+02</wgt>
<wgt id='2352'>0.86906E+02</wgt>
<wgt id='2353'>0.87199E+02</wgt>
<wgt id='2354'>0.87353E+02</wgt>
<wgt id='2355'>0.87102E+02</wgt>
<wgt id='2356'>0.87083E+02</wgt>
<wgt id='2357'>0.87350E+02</wgt>
<wgt id='2358'>0.87022E+02</wgt>
<wgt id='2359'>0.87083E+02</wgt>
<wgt id='2360'>0.87303E+02</wgt>
<wgt id='2361'>0.87258E+02</wgt>
<wgt id='2362'>0.87211E+02</wgt>
<wgt id='2363'>0.87073E+02</wgt>
<wgt id='2364'>0.87240E+02</wgt>
<wgt id='2365'>0.87051E+02</wgt>
<wgt id='2366'>0.87180E+02</wgt>
<wgt id='2367'>0.87059E+02</wgt>
<wgt id='2368'>0.87133E+02</wgt>
<wgt id='2369'>0.87055E+02</wgt>
<wgt id='2370'>0.87073E+02</wgt>
<wgt id='2371'>0.87143E+02</wgt>
<wgt id='2372'>0.87238E+02</wgt>
<wgt id='2373'>0.87142E+02</wgt>
<wgt id='2374'>0.87409E+02</wgt>
<wgt id='2375'>0.87213E+02</wgt>
<wgt id='2376'>0.87220E+02</wgt>
<wgt id='2377'>0.87200E+02</wgt>
<wgt id='2378'>0.87252E+02</wgt>
<wgt id='2379'>0.87009E+02</wgt>
<wgt id='2380'>0.87055E+02</wgt>
<wgt id='2381'>0.87132E+02</wgt>
<wgt id='2382'>0.87072E+02</wgt>
<wgt id='2383'>0.87185E+02</wgt>
<wgt id='2384'>0.87174E+02</wgt>
<wgt id='2385'>0.87182E+02</wgt>
<wgt id='2386'>0.87132E+02</wgt>
<wgt id='2387'>0.87115E+02</wgt>
<wgt id='2388'>0.87125E+02</wgt>
<wgt id='2389'>0.87145E+02</wgt>
<wgt id='2390'>0.87105E+02</wgt>
<wgt id='2391'>0.87117E+02</wgt>
<wgt id='2392'>0.87165E+02</wgt>
<wgt id='2393'>0.87205E+02</wgt>
<wgt id='2394'>0.87189E+02</wgt>
<wgt id='2395'>0.87159E+02</wgt>
<wgt id='2396'>0.87144E+02</wgt>
<wgt id='2397'>0.87150E+02</wgt>
<wgt id='2398'>0.87167E+02</wgt>
<wgt id='2399'>0.87193E+02</wgt>
<wgt id='2400'>0.87186E+02</wgt>
<wgt id='2401'>0.85501E+02</wgt>
<wgt id='2402'>0.89389E+02</wgt>
<wgt id='2500'>0.83548E+02</wgt>
<wgt id='2501'>0.88317E+02</wgt>
<wgt id='2600'>0.79821E+02</wgt>
<wgt id='2601'>0.79527E+02</wgt>
<wgt id='2602'>0.79976E+02</wgt>
<wgt id='2603'>0.79802E+02</wgt>
<wgt id='2604'>0.79922E+02</wgt>
<wgt id='2605'>0.79719E+02</wgt>
<wgt id='2606'>0.79952E+02</wgt>
<wgt id='2607'>0.79910E+02</wgt>
<wgt id='2608'>0.79968E+02</wgt>
<wgt id='2609'>0.79731E+02</wgt>
<wgt id='2610'>0.79759E+02</wgt>
<wgt id='2611'>0.79813E+02</wgt>
<wgt id='2612'>0.79784E+02</wgt>
<wgt id='2613'>0.79856E+02</wgt>
<wgt id='2614'>0.79722E+02</wgt>
<wgt id='2615'>0.79690E+02</wgt>
<wgt id='2616'>0.79918E+02</wgt>
<wgt id='2617'>0.79619E+02</wgt>
<wgt id='2618'>0.79956E+02</wgt>
<wgt id='2619'>0.79914E+02</wgt>
<wgt id='2620'>0.79547E+02</wgt>
<wgt id='2621'>0.79955E+02</wgt>
<wgt id='2622'>0.80055E+02</wgt>
<wgt id='2623'>0.79767E+02</wgt>
<wgt id='2624'>0.79708E+02</wgt>
<wgt id='2625'>0.80066E+02</wgt>
<wgt id='2626'>0.79960E+02</wgt>
<wgt id='2627'>0.79959E+02</wgt>
<wgt id='2628'>0.79720E+02</wgt>
<wgt id='2629'>0.79990E+02</wgt>
<wgt id='2630'>0.80136E+02</wgt>
<wgt id='2631'>0.79870E+02</wgt>
<wgt id='2632'>0.79433E+02</wgt>
<wgt id='2633'>0.79776E+02</wgt>
<wgt id='2634'>0.79820E+02</wgt>
<wgt id='2635'>0.79525E+02</wgt>
<wgt id='2636'>0.79909E+02</wgt>
<wgt id='2637'>0.79732E+02</wgt>
<wgt id='2638'>0.79707E+02</wgt>
<wgt id='2639'>0.79827E+02</wgt>
<wgt id='2640'>0.79837E+02</wgt>
<wgt id='2641'>0.79636E+02</wgt>
<wgt id='2642'>0.79796E+02</wgt>
<wgt id='2643'>0.79761E+02</wgt>
<wgt id='2644'>0.79810E+02</wgt>
<wgt id='2645'>0.79723E+02</wgt>
<wgt id='2646'>0.79676E+02</wgt>
<wgt id='2647'>0.79847E+02</wgt>
<wgt id='2648'>0.79869E+02</wgt>
<wgt id='2649'>0.79892E+02</wgt>
<wgt id='2650'>0.79853E+02</wgt>
<wgt id='2651'>0.78465E+02</wgt>
<wgt id='2652'>0.80772E+02</wgt>
<wgt id='2700'>0.77262E+02</wgt>
<wgt id='2701'>0.78465E+02</wgt>
<wgt id='2702'>0.79141E+02</wgt>
<wgt id='2703'>0.80499E+02</wgt>
<wgt id='2704'>0.80772E+02</wgt>
<wgt id='2705'>0.82277E+02</wgt>
<wgt id='2800'>0.82435E+02</wgt>
<wgt id='4000'>0.84955E+02</wgt>
<wgt id='4001'>0.85109E+02</wgt>
<wgt id='4002'>0.84951E+02</wgt>
<wgt id='4003'>0.83494E+02</wgt>
<wgt id='4004'>0.86749E+02</wgt>
<wgt id='4005'>0.85734E+02</wgt>
<wgt id='4006'>0.84479E+02</wgt>
<wgt id='4007'>0.85022E+02</wgt>
<wgt id='4008'>0.84975E+02</wgt>
<wgt id='4009'>0.84040E+02</wgt>
<wgt id='4010'>0.85288E+02</wgt>
<wgt id='4011'>0.85755E+02</wgt>
<wgt id='4012'>0.83957E+02</wgt>
<wgt id='4013'>0.84909E+02</wgt>
<wgt id='4014'>0.85160E+02</wgt>
<wgt id='4015'>0.85990E+02</wgt>
<wgt id='4016'>0.85710E+02</wgt>
<wgt id='4017'>0.85136E+02</wgt>
<wgt id='4018'>0.84783E+02</wgt>
<wgt id='4019'>0.84446E+02</wgt>
<wgt id='4020'>0.85905E+02</wgt>
<wgt id='4021'>0.85329E+02</wgt>
<wgt id='4022'>0.84315E+02</wgt>
<wgt id='4023'>0.85467E+02</wgt>
<wgt id='4024'>0.85521E+02</wgt>
<wgt id='4025'>0.84669E+02</wgt>
<wgt id='4026'>0.85824E+02</wgt>
<wgt id='4027'>0.86235E+02</wgt>
<wgt id='4028'>0.83879E+02</wgt>
<wgt id='4029'>0.86674E+02</wgt>
<wgt id='4030'>0.84039E+02</wgt>
<wgt id='4031'>0.85202E+02</wgt>
<wgt id='4032'>0.86663E+02</wgt>
<wgt id='4033'>0.85836E+02</wgt>
<wgt id='4034'>0.84502E+02</wgt>
<wgt id='4035'>0.84669E+02</wgt>
<wgt id='4036'>0.85198E+02</wgt>
<wgt id='4037'>0.88342E+02</wgt>
<wgt id='4038'>0.82302E+02</wgt>
<wgt id='4039'>0.86638E+02</wgt>
<wgt id='4040'>0.83574E+02</wgt>
<wgt id='4041'>0.85674E+02</wgt>
<wgt id='4042'>0.84265E+02</wgt>
<wgt id='4043'>0.85157E+02</wgt>
<wgt id='4044'>0.84191E+02</wgt>
<wgt id='4045'>0.84380E+02</wgt>
<wgt id='4046'>0.85292E+02</wgt>
<wgt id='4047'>0.85866E+02</wgt>
<wgt id='4048'>0.85110E+02</wgt>
<wgt id='4049'>0.84994E+02</wgt>
<wgt id='4050'>0.85093E+02</wgt>
<wgt id='4051'>0.84473E+02</wgt>
<wgt id='4052'>0.85719E+02</wgt>
<wgt id='4053'>0.84710E+02</wgt>
<wgt id='4054'>0.84700E+02</wgt>
<wgt id='4055'>0.85473E+02</wgt>
<wgt id='4056'>0.84413E+02</wgt>
<wgt id='4057'>0.84365E+02</wgt>
<wgt id='4058'>0.85358E+02</wgt>
<wgt id='4100'>0.85236E+02</wgt>
<wgt id='4101'>0.85036E+02</wgt>
<wgt id='4102'>0.84976E+02</wgt>
<wgt id='4103'>0.85066E+02</wgt>
<wgt id='4200'>0.83598E+02</wgt>
<wgt id='4201'>0.83442E+02</wgt>
<wgt id='4202'>0.83854E+02</wgt>
<wgt id='4203'>0.83469E+02</wgt>
<wgt id='4204'>0.83544E+02</wgt>
<wgt id='4205'>0.83631E+02</wgt>
<wgt id='4206'>0.83738E+02</wgt>
<wgt id='4207'>0.84494E+02</wgt>
<wgt id='4208'>0.83013E+02</wgt>
<wgt id='4209'>0.82970E+02</wgt>
<wgt id='4210'>0.83979E+02</wgt>
<wgt id='4211'>0.83732E+02</wgt>
<wgt id='4212'>0.83514E+02</wgt>
<wgt id='4213'>0.83594E+02</wgt>
<wgt id='4214'>0.83600E+02</wgt>
<wgt id='4215'>0.83688E+02</wgt>
<wgt id='4216'>0.83930E+02</wgt>
<wgt id='4217'>0.83893E+02</wgt>
<wgt id='4218'>0.83332E+02</wgt>
<wgt id='4219'>0.83931E+02</wgt>
<wgt id='4220'>0.83394E+02</wgt>
<wgt id='4221'>0.83589E+02</wgt>
<wgt id='4222'>0.84020E+02</wgt>
<wgt id='4223'>0.81899E+02</wgt>
<wgt id='4224'>0.83843E+02</wgt>
<wgt id='4225'>0.83161E+02</wgt>
<wgt id='4226'>0.84558E+02</wgt>
<wgt id='4227'>0.84238E+02</wgt>
<wgt id='4228'>0.83056E+02</wgt>
<wgt id='4229'>0.82199E+02</wgt>
<wgt id='4230'>0.84876E+02</wgt>
<wgt id='4231'>0.84121E+02</wgt>
<wgt id='4232'>0.82774E+02</wgt>
<wgt id='4233'>0.83791E+02</wgt>
<wgt id='4234'>0.82744E+02</wgt>
<wgt id='4235'>0.84811E+02</wgt>
<wgt id='4236'>0.82340E+02</wgt>
<wgt id='4237'>0.85572E+02</wgt>
<wgt id='4238'>0.80931E+02</wgt>
<wgt id='4239'>0.83169E+02</wgt>
<wgt id='4240'>0.84203E+02</wgt>
<wgt id='4241'>0.83892E+02</wgt>
<wgt id='4242'>0.83296E+02</wgt>
<wgt id='4243'>0.84311E+02</wgt>
<wgt id='4244'>0.82849E+02</wgt>
<wgt id='4245'>0.84131E+02</wgt>
<wgt id='4246'>0.82554E+02</wgt>
<wgt id='4247'>0.82632E+02</wgt>
<wgt id='4248'>0.84190E+02</wgt>
<wgt id='4249'>0.84425E+02</wgt>
<wgt id='4250'>0.82580E+02</wgt>
<wgt id='4251'>0.85425E+02</wgt>
<wgt id='4252'>0.82429E+02</wgt>
<wgt id='4253'>0.84724E+02</wgt>
<wgt id='4254'>0.82157E+02</wgt>
<wgt id='4255'>0.85513E+02</wgt>
<wgt id='4256'>0.82741E+02</wgt>
<wgt id='4257'>0.82220E+02</wgt>
<wgt id='4258'>0.83997E+02</wgt>
<wgt id='4300'>0.83863E+02</wgt>
<wgt id='4301'>0.85491E+02</wgt>
<wgt id='5000'>0.83595E+02</wgt>
<wgt id='5001'>0.83640E+02</wgt>
<wgt id='5002'>0.83538E+02</wgt>
<wgt id='5003'>0.83611E+02</wgt>
<wgt id='5004'>0.83580E+02</wgt>
<wgt id='5005'>0.83609E+02</wgt>
<wgt id='5006'>0.83573E+02</wgt>
<wgt id='5007'>0.83700E+02</wgt>
<wgt id='5008'>0.83510E+02</wgt>
<wgt id='5009'>0.83677E+02</wgt>
<wgt id='5010'>0.83510E+02</wgt>
<wgt id='5011'>0.83859E+02</wgt>
<wgt id='5012'>0.83342E+02</wgt>
<wgt id='5013'>0.83670E+02</wgt>
<wgt id='5014'>0.83542E+02</wgt>
<wgt id='5015'>0.83214E+02</wgt>
<wgt id='5016'>0.83214E+02</wgt>
<wgt id='5017'>0.83925E+02</wgt>
<wgt id='5018'>0.83373E+02</wgt>
<wgt id='5019'>0.83890E+02</wgt>
<wgt id='5020'>0.83191E+02</wgt>
<wgt id='5021'>0.83691E+02</wgt>
<wgt id='5022'>0.83443E+02</wgt>
<wgt id='5023'>0.83546E+02</wgt>
<wgt id='5024'>0.83713E+02</wgt>
<wgt id='5025'>0.83407E+02</wgt>
<wgt id='5026'>0.83804E+02</wgt>
<wgt id='5027'>0.83662E+02</wgt>
<wgt id='5028'>0.83417E+02</wgt>
<wgt id='5029'>0.84740E+02</wgt>
<wgt id='5030'>0.82952E+02</wgt>
<wgt id='5031'>0.82931E+02</wgt>
<wgt id='5032'>0.85629E+02</wgt>
<wgt id='5033'>0.83497E+02</wgt>
<wgt id='5034'>0.83701E+02</wgt>
<wgt id='5035'>0.83609E+02</wgt>
<wgt id='5036'>0.83580E+02</wgt>
<wgt id='5037'>0.83259E+02</wgt>
<wgt id='5038'>0.83785E+02</wgt>
<wgt id='5039'>0.83754E+02</wgt>
<wgt id='5040'>0.83207E+02</wgt>
<wgt id='5041'>0.83024E+02</wgt>
<wgt id='5042'>0.84193E+02</wgt>
<wgt id='5043'>0.83795E+02</wgt>
<wgt id='5044'>0.83463E+02</wgt>
<wgt id='5045'>0.84147E+02</wgt>
<wgt id='5046'>0.82526E+02</wgt>
<wgt id='5047'>0.83724E+02</wgt>
<wgt id='5048'>0.83036E+02</wgt>
<wgt id='5049'>0.83453E+02</wgt>
<wgt id='5050'>0.83932E+02</wgt>
<wgt id='5051'>0.83917E+02</wgt>
<wgt id='5052'>0.83381E+02</wgt>
<wgt id='5053'>0.83956E+02</wgt>
<wgt id='5054'>0.83747E+02</wgt>
<wgt id='5055'>0.83637E+02</wgt>
<wgt id='5056'>0.83712E+02</wgt>
<wgt id='5057'>0.83177E+02</wgt>
<wgt id='5058'>0.83889E+02</wgt>
<wgt id='5059'>0.83378E+02</wgt>
<wgt id='5060'>0.83722E+02</wgt>
<wgt id='5061'>0.83787E+02</wgt>
<wgt id='5062'>0.83957E+02</wgt>
<wgt id='5063'>0.83812E+02</wgt>
<wgt id='5064'>0.83818E+02</wgt>
<wgt id='5100'>0.83595E+02</wgt>
<wgt id='5101'>0.83587E+02</wgt>
<wgt id='6000'>0.83133E+02</wgt>
<wgt id='6001'>0.82631E+02</wgt>
<wgt id='6002'>0.82109E+02</wgt>
<wgt id='6003'>0.82870E+02</wgt>
<wgt id='6004'>0.83766E+02</wgt>
<wgt id='6005'>0.82535E+02</wgt>
<wgt id='6006'>0.83123E+02</wgt>
<wgt id='6007'>0.82327E+02</wgt>
<wgt id='6008'>0.83595E+02</wgt>
<wgt id='6009'>0.82957E+02</wgt>
<wgt id='6010'>0.83820E+02</wgt>
<wgt id='6011'>0.83110E+02</wgt>
<wgt id='6012'>0.83303E+02</wgt>
<wgt id='6013'>0.82690E+02</wgt>
<wgt id='6014'>0.82642E+02</wgt>
<wgt id='6015'>0.82423E+02</wgt>
<wgt id='6016'>0.83723E+02</wgt>
<wgt id='6017'>0.82644E+02</wgt>
<wgt id='6018'>0.82310E+02</wgt>
<wgt id='6019'>0.83408E+02</wgt>
<wgt id='6020'>0.83325E+02</wgt>
<wgt id='6021'>0.83037E+02</wgt>
<wgt id='6022'>0.83529E+02</wgt>
<wgt id='6023'>0.83054E+02</wgt>
<wgt id='6024'>0.83303E+02</wgt>
<wgt id='6025'>0.83704E+02</wgt>
<wgt id='6026'>0.82980E+02</wgt>
<wgt id='6027'>0.83283E+02</wgt>
<wgt id='6028'>0.82413E+02</wgt>
<wgt id='6029'>0.82780E+02</wgt>
<wgt id='6030'>0.82451E+02</wgt>
<wgt id='6031'>0.82880E+02</wgt>
<wgt id='6032'>0.83087E+02</wgt>
<wgt id='6033'>0.83048E+02</wgt>
<wgt id='6034'>0.83584E+02</wgt>
<wgt id='6035'>0.83203E+02</wgt>
<wgt id='6036'>0.84035E+02</wgt>
<wgt id='6037'>0.83094E+02</wgt>
<wgt id='6038'>0.82939E+02</wgt>
<wgt id='6039'>0.83466E+02</wgt>
<wgt id='6040'>0.83224E+02</wgt>
<wgt id='6041'>0.81957E+02</wgt>
<wgt id='6042'>0.84478E+02</wgt>
<wgt id='7000'>0.79598E+02</wgt>
<wgt id='7001'>0.79231E+02</wgt>
<wgt id='7002'>0.79380E+02</wgt>
<wgt id='7003'>0.79320E+02</wgt>
<wgt id='7004'>0.79291E+02</wgt>
<wgt id='7005'>0.79371E+02</wgt>
<wgt id='7006'>0.79240E+02</wgt>
<wgt id='7007'>0.79711E+02</wgt>
<wgt id='7008'>0.78910E+02</wgt>
<wgt id='7009'>0.78952E+02</wgt>
<wgt id='7010'>0.79671E+02</wgt>
<wgt id='7011'>0.79575E+02</wgt>
<wgt id='7012'>0.79044E+02</wgt>
<wgt id='7013'>0.79267E+02</wgt>
<wgt id='7014'>0.79341E+02</wgt>
<wgt id='7015'>0.79564E+02</wgt>
<wgt id='7016'>0.78943E+02</wgt>
<wgt id='7017'>0.79038E+02</wgt>
<wgt id='7018'>0.79582E+02</wgt>
<wgt id='7019'>0.79853E+02</wgt>
<wgt id='7020'>0.78779E+02</wgt>
<wgt id='7021'>0.80881E+02</wgt>
<wgt id='7022'>0.77808E+02</wgt>
<wgt id='7023'>0.77913E+02</wgt>
<wgt id='7024'>0.80724E+02</wgt>
<wgt id='7025'>0.77560E+02</wgt>
<wgt id='7026'>0.81006E+02</wgt>
<wgt id='7027'>0.78546E+02</wgt>
<wgt id='7028'>0.80152E+02</wgt>
<wgt id='8000'>0.80983E+02</wgt>
<wgt id='8001'>0.80974E+02</wgt>
<wgt id='8002'>0.81006E+02</wgt>
<wgt id='8003'>0.80983E+02</wgt>
<wgt id='8004'>0.80981E+02</wgt>
<wgt id='8005'>0.80828E+02</wgt>
<wgt id='8006'>0.81075E+02</wgt>
<wgt id='8007'>0.81135E+02</wgt>
<wgt id='8008'>0.81151E+02</wgt>
<wgt id='8009'>0.81317E+02</wgt>
<wgt id='8010'>0.80894E+02</wgt>
<wgt id='8011'>0.81017E+02</wgt>
<wgt id='8012'>0.80709E+02</wgt>
<wgt id='8013'>0.80824E+02</wgt>
<wgt id='8014'>0.81183E+02</wgt>
<wgt id='8015'>0.80915E+02</wgt>
<wgt id='8016'>0.81133E+02</wgt>
<wgt id='8017'>0.81146E+02</wgt>
<wgt id='8018'>0.81333E+02</wgt>
<wgt id='8019'>0.80704E+02</wgt>
<wgt id='8020'>0.81474E+02</wgt>
<wgt id='8021'>0.80773E+02</wgt>
<wgt id='8022'>0.81869E+02</wgt>
<wgt id='8023'>0.80557E+02</wgt>
<wgt id='8024'>0.80216E+02</wgt>
<wgt id='8025'>0.80326E+02</wgt>
<wgt id='8026'>0.80923E+02</wgt>
<wgt id='8027'>0.81192E+02</wgt>
<wgt id='8028'>0.80997E+02</wgt>
<wgt id='8029'>0.83509E+02</wgt>
<wgt id='3000'>0.81104E+02</wgt>
<wgt id='3001'>0.84422E+02</wgt>
<wgt id='3002'>0.79724E+02</wgt>
<wgt id='3003'>0.79634E+02</wgt>
<wgt id='3004'>0.81413E+02</wgt>
<wgt id='3005'>0.81655E+02</wgt>
<wgt id='3006'>0.81616E+02</wgt>
<wgt id='3007'>0.78485E+02</wgt>
<wgt id='3008'>0.77945E+02</wgt>
<wgt id='3009'>0.79579E+02</wgt>
<wgt id='3010'>0.86814E+02</wgt>
<wgt id='3011'>0.83685E+02</wgt>
<wgt id='3012'>0.79691E+02</wgt>
<wgt id='3013'>0.82524E+02</wgt>
<wgt id='3014'>0.80704E+02</wgt>
<wgt id='3015'>0.80517E+02</wgt>
<wgt id='3016'>0.80276E+02</wgt>
<wgt id='3017'>0.80793E+02</wgt>
<wgt id='3018'>0.78979E+02</wgt>
<wgt id='3019'>0.79927E+02</wgt>
<wgt id='3020'>0.80837E+02</wgt>
<wgt id='3021'>0.80912E+02</wgt>
<wgt id='3022'>0.79485E+02</wgt>
<wgt id='3023'>0.79303E+02</wgt>
<wgt id='3024'>0.81184E+02</wgt>
<wgt id='3025'>0.78458E+02</wgt>
<wgt id='3026'>0.81023E+02</wgt>
<wgt id='3027'>0.83584E+02</wgt>
<wgt id='3028'>0.77383E+02</wgt>
<wgt id='3029'>0.81269E+02</wgt>
<wgt id='3030'>0.80285E+02</wgt>
<wgt id='3031'>0.82403E+02</wgt>
<wgt id='3032'>0.82263E+02</wgt>
<wgt id='3033'>0.79194E+02</wgt>
<wgt id='3034'>0.80920E+02</wgt>
<wgt id='3035'>0.83719E+02</wgt>
<wgt id='3036'>0.82104E+02</wgt>
<wgt id='3037'>0.81649E+02</wgt>
<wgt id='3038'>0.81243E+02</wgt>
<wgt id='3039'>0.81733E+02</wgt>
<wgt id='3040'>0.79497E+02</wgt>
<wgt id='3041'>0.80374E+02</wgt>
<wgt id='3042'>0.80034E+02</wgt>
<wgt id='3043'>0.82241E+02</wgt>
<wgt id='3044'>0.81474E+02</wgt>
<wgt id='3045'>0.80587E+02</wgt>
<wgt id='3046'>0.81287E+02</wgt>
<wgt id='3047'>0.82823E+02</wgt>
<wgt id='3048'>0.82836E+02</wgt>
<wgt id='3049'>0.83488E+02</wgt>
<wgt id='3050'>0.83710E+02</wgt>
<wgt id='3051'>0.81520E+02</wgt>
<wgt id='3052'>0.79649E+02</wgt>
<wgt id='3053'>0.82664E+02</wgt>
<wgt id='3054'>0.79899E+02</wgt>
<wgt id='3055'>0.80927E+02</wgt>
<wgt id='3056'>0.80223E+02</wgt>
<wgt id='3057'>0.80825E+02</wgt>
<wgt id='3058'>0.82854E+02</wgt>
<wgt id='3059'>0.77841E+02</wgt>
<wgt id='3060'>0.81485E+02</wgt>
<wgt id='3061'>0.82306E+02</wgt>
<wgt id='3062'>0.81314E+02</wgt>
<wgt id='3063'>0.82967E+02</wgt>
<wgt id='3064'>0.82438E+02</wgt>
<wgt id='3065'>0.79603E+02</wgt>
<wgt id='3066'>0.79649E+02</wgt>
<wgt id='3067'>0.78998E+02</wgt>
<wgt id='3068'>0.80157E+02</wgt>
<wgt id='3069'>0.80927E+02</wgt>
<wgt id='3070'>0.83185E+02</wgt>
<wgt id='3071'>0.81645E+02</wgt>
<wgt id='3072'>0.82639E+02</wgt>
<wgt id='3073'>0.79986E+02</wgt>
<wgt id='3074'>0.79744E+02</wgt>
<wgt id='3075'>0.81113E+02</wgt>
<wgt id='3076'>0.82890E+02</wgt>
<wgt id='3077'>0.82201E+02</wgt>
<wgt id='3078'>0.81283E+02</wgt>
<wgt id='3079'>0.81793E+02</wgt>
<wgt id='3080'>0.84957E+02</wgt>
<wgt id='3081'>0.81981E+02</wgt>
<wgt id='3082'>0.80276E+02</wgt>
<wgt id='3083'>0.81129E+02</wgt>
<wgt id='3084'>0.79222E+02</wgt>
<wgt id='3085'>0.80944E+02</wgt>
<wgt id='3086'>0.83118E+02</wgt>
<wgt id='3087'>0.79800E+02</wgt>
<wgt id='3088'>0.81334E+02</wgt>
<wgt id='3089'>0.79589E+02</wgt>
<wgt id='3090'>0.78937E+02</wgt>
<wgt id='3091'>0.78278E+02</wgt>
<wgt id='3092'>0.82871E+02</wgt>
<wgt id='3093'>0.80900E+02</wgt>
<wgt id='3094'>0.81563E+02</wgt>
<wgt id='3095'>0.81039E+02</wgt>
<wgt id='3096'>0.79824E+02</wgt>
<wgt id='3097'>0.86149E+02</wgt>
<wgt id='3098'>0.80649E+02</wgt>
<wgt id='3099'>0.78894E+02</wgt>
<wgt id='3100'>0.80018E+02</wgt>
<wgt id='3200'>0.80021E+02</wgt>
<wgt id='3201'>0.79204E+02</wgt>
<wgt id='3202'>0.78610E+02</wgt>
<wgt id='3203'>0.80911E+02</wgt>
<wgt id='3204'>0.80448E+02</wgt>
<wgt id='3205'>0.80227E+02</wgt>
<wgt id='3206'>0.80862E+02</wgt>
<wgt id='3207'>0.80175E+02</wgt>
<wgt id='3208'>0.80190E+02</wgt>
<wgt id='3209'>0.79952E+02</wgt>
<wgt id='3210'>0.79962E+02</wgt>
<wgt id='3211'>0.79415E+02</wgt>
<wgt id='3212'>0.80012E+02</wgt>
<wgt id='3213'>0.81104E+02</wgt>
<wgt id='3214'>0.79338E+02</wgt>
<wgt id='3215'>0.79538E+02</wgt>
<wgt id='3216'>0.80878E+02</wgt>
<wgt id='3217'>0.80502E+02</wgt>
<wgt id='3218'>0.81027E+02</wgt>
<wgt id='3219'>0.79240E+02</wgt>
<wgt id='3220'>0.79241E+02</wgt>
<wgt id='3221'>0.79803E+02</wgt>
<wgt id='3222'>0.80580E+02</wgt>
<wgt id='3223'>0.79826E+02</wgt>
<wgt id='3224'>0.79816E+02</wgt>
<wgt id='3225'>0.80590E+02</wgt>
<wgt id='3226'>0.79786E+02</wgt>
<wgt id='3227'>0.79556E+02</wgt>
<wgt id='3228'>0.80315E+02</wgt>
<wgt id='3229'>0.81170E+02</wgt>
<wgt id='3230'>0.80419E+02</wgt>
<wgt id='3231'>0.80142E+02</wgt>
<wgt id='3232'>0.80265E+02</wgt>
<wgt id='3233'>0.79586E+02</wgt>
<wgt id='3234'>0.78183E+02</wgt>
<wgt id='3235'>0.79673E+02</wgt>
<wgt id='3236'>0.81043E+02</wgt>
<wgt id='3237'>0.80238E+02</wgt>
<wgt id='3238'>0.80713E+02</wgt>
<wgt id='3239'>0.78928E+02</wgt>
<wgt id='3240'>0.78043E+02</wgt>
<wgt id='3241'>0.80340E+02</wgt>
<wgt id='3242'>0.80755E+02</wgt>
<wgt id='3243'>0.81833E+02</wgt>
<wgt id='3244'>0.81379E+02</wgt>
<wgt id='3245'>0.80961E+02</wgt>
<wgt id='3246'>0.78814E+02</wgt>
<wgt id='3247'>0.77690E+02</wgt>
<wgt id='3248'>0.79601E+02</wgt>
<wgt id='3249'>0.79582E+02</wgt>
<wgt id='3250'>0.79181E+02</wgt>
<wgt id='3251'>0.79430E+02</wgt>
<wgt id='3252'>0.81454E+02</wgt>
<wgt id='3253'>0.81728E+02</wgt>
<wgt id='3254'>0.79930E+02</wgt>
<wgt id='3255'>0.78336E+02</wgt>
<wgt id='3256'>0.79226E+02</wgt>
<wgt id='3257'>0.79165E+02</wgt>
<wgt id='3258'>0.78680E+02</wgt>
<wgt id='3259'>0.78549E+02</wgt>
<wgt id='3260'>0.80560E+02</wgt>
<wgt id='3261'>0.78673E+02</wgt>
<wgt id='3262'>0.81561E+02</wgt>
<wgt id='3263'>0.79772E+02</wgt>
<wgt id='3264'>0.81246E+02</wgt>
<wgt id='3265'>0.81408E+02</wgt>
<wgt id='3266'>0.80238E+02</wgt>
<wgt id='3267'>0.80300E+02</wgt>
<wgt id='3268'>0.78170E+02</wgt>
<wgt id='3269'>0.79255E+02</wgt>
<wgt id='3270'>0.82267E+02</wgt>
<wgt id='3271'>0.79477E+02</wgt>
<wgt id='3272'>0.79914E+02</wgt>
<wgt id='3273'>0.80130E+02</wgt>
<wgt id='3274'>0.80314E+02</wgt>
<wgt id='3275'>0.81199E+02</wgt>
<wgt id='3276'>0.78988E+02</wgt>
<wgt id='3277'>0.80344E+02</wgt>
<wgt id='3278'>0.81062E+02</wgt>
<wgt id='3279'>0.80432E+02</wgt>
<wgt id='3280'>0.79579E+02</wgt>
<wgt id='3281'>0.80984E+02</wgt>
<wgt id='3282'>0.79630E+02</wgt>
<wgt id='3283'>0.80997E+02</wgt>
<wgt id='3284'>0.78348E+02</wgt>
<wgt id='3285'>0.80577E+02</wgt>
<wgt id='3286'>0.78822E+02</wgt>
<wgt id='3287'>0.82598E+02</wgt>
<wgt id='3288'>0.78528E+02</wgt>
<wgt id='3289'>0.80816E+02</wgt>
<wgt id='3290'>0.78723E+02</wgt>
<wgt id='3291'>0.80316E+02</wgt>
<wgt id='3292'>0.80044E+02</wgt>
<wgt id='3293'>0.79693E+02</wgt>
<wgt id='3294'>0.80628E+02</wgt>
<wgt id='3295'>0.79748E+02</wgt>
<wgt id='3296'>0.80163E+02</wgt>
<wgt id='3297'>0.80890E+02</wgt>
<wgt id='3298'>0.78189E+02</wgt>
<wgt id='3299'>0.80678E+02</wgt>
<wgt id='3300'>0.80629E+02</wgt>
<wgt id='3301'>0.78465E+02</wgt>
<wgt id='3302'>0.80772E+02</wgt>
<wgt id='3400'>0.78944E+02</wgt>
<wgt id='3401'>0.79917E+02</wgt>
<wgt id='3402'>0.76784E+02</wgt>
<wgt id='3403'>0.79997E+02</wgt>
<wgt id='3404'>0.80340E+02</wgt>
<wgt id='3405'>0.79994E+02</wgt>
<wgt id='3406'>0.79683E+02</wgt>
<wgt id='3407'>0.78528E+02</wgt>
<wgt id='3408'>0.78957E+02</wgt>
<wgt id='3409'>0.78006E+02</wgt>
<wgt id='3410'>0.79574E+02</wgt>
<wgt id='3411'>0.80076E+02</wgt>
<wgt id='3412'>0.79298E+02</wgt>
<wgt id='3413'>0.78575E+02</wgt>
<wgt id='3414'>0.79093E+02</wgt>
<wgt id='3415'>0.79371E+02</wgt>
<wgt id='3416'>0.78803E+02</wgt>
<wgt id='3417'>0.79806E+02</wgt>
<wgt id='3418'>0.78437E+02</wgt>
<wgt id='3419'>0.78666E+02</wgt>
<wgt id='3420'>0.78482E+02</wgt>
<wgt id='3421'>0.78136E+02</wgt>
<wgt id='3422'>0.78195E+02</wgt>
<wgt id='3423'>0.81477E+02</wgt>
<wgt id='3424'>0.78961E+02</wgt>
<wgt id='3425'>0.77824E+02</wgt>
<wgt id='3426'>0.78051E+02</wgt>
<wgt id='3427'>0.77874E+02</wgt>
<wgt id='3428'>0.78726E+02</wgt>
<wgt id='3429'>0.77499E+02</wgt>
<wgt id='3430'>0.78584E+02</wgt>
<wgt id='3431'>0.79625E+02</wgt>
<wgt id='3432'>0.79753E+02</wgt>
<wgt id='3433'>0.79168E+02</wgt>
<wgt id='3434'>0.80824E+02</wgt>
<wgt id='3435'>0.80179E+02</wgt>
<wgt id='3436'>0.79001E+02</wgt>
<wgt id='3437'>0.80896E+02</wgt>
<wgt id='3438'>0.78443E+02</wgt>
<wgt id='3439'>0.77196E+02</wgt>
<wgt id='3440'>0.79299E+02</wgt>
<wgt id='3441'>0.79612E+02</wgt>
<wgt id='3442'>0.79434E+02</wgt>
<wgt id='3443'>0.80494E+02</wgt>
<wgt id='3444'>0.78363E+02</wgt>
<wgt id='3445'>0.78171E+02</wgt>
<wgt id='3446'>0.79633E+02</wgt>
<wgt id='3447'>0.78401E+02</wgt>
<wgt id='3448'>0.80213E+02</wgt>
<wgt id='3449'>0.78884E+02</wgt>
<wgt id='3450'>0.77846E+02</wgt>
<wgt id='3451'>0.79459E+02</wgt>
<wgt id='3452'>0.78033E+02</wgt>
<wgt id='3453'>0.77132E+02</wgt>
<wgt id='3454'>0.78864E+02</wgt>
<wgt id='3455'>0.79405E+02</wgt>
<wgt id='3456'>0.79479E+02</wgt>
<wgt id='3457'>0.78375E+02</wgt>
<wgt id='3458'>0.77900E+02</wgt>
<wgt id='3459'>0.79503E+02</wgt>
<wgt id='3460'>0.78857E+02</wgt>
<wgt id='3461'>0.78554E+02</wgt>
<wgt id='3462'>0.79009E+02</wgt>
<wgt id='3463'>0.78309E+02</wgt>
<wgt id='3464'>0.78718E+02</wgt>
<wgt id='3465'>0.78724E+02</wgt>
<wgt id='3466'>0.80332E+02</wgt>
<wgt id='3467'>0.78885E+02</wgt>
<wgt id='3468'>0.78052E+02</wgt>
<wgt id='3469'>0.77101E+02</wgt>
<wgt id='3470'>0.78524E+02</wgt>
<wgt id='3471'>0.77667E+02</wgt>
<wgt id='3472'>0.76981E+02</wgt>
<wgt id='3473'>0.80889E+02</wgt>
<wgt id='3474'>0.78209E+02</wgt>
<wgt id='3475'>0.78981E+02</wgt>
<wgt id='3476'>0.78810E+02</wgt>
<wgt id='3477'>0.77894E+02</wgt>
<wgt id='3478'>0.79641E+02</wgt>
<wgt id='3479'>0.78295E+02</wgt>
<wgt id='3480'>0.79610E+02</wgt>
<wgt id='3481'>0.80232E+02</wgt>
<wgt id='3482'>0.79159E+02</wgt>
<wgt id='3483'>0.78944E+02</wgt>
<wgt id='3484'>0.78258E+02</wgt>
<wgt id='3485'>0.78095E+02</wgt>
<wgt id='3486'>0.77045E+02</wgt>
<wgt id='3487'>0.77520E+02</wgt>
<wgt id='3488'>0.78747E+02</wgt>
<wgt id='3489'>0.77926E+02</wgt>
<wgt id='3490'>0.79749E+02</wgt>
<wgt id='3491'>0.81035E+02</wgt>
<wgt id='3492'>0.78403E+02</wgt>
<wgt id='3493'>0.80974E+02</wgt>
<wgt id='3494'>0.77434E+02</wgt>
<wgt id='3495'>0.80787E+02</wgt>
<wgt id='3496'>0.77473E+02</wgt>
<wgt id='3497'>0.78574E+02</wgt>
<wgt id='3498'>0.80311E+02</wgt>
<wgt id='3499'>0.79113E+02</wgt>
<wgt id='3500'>0.81202E+02</wgt>
</rwgt>
</event>
<event>
     13 322200  8.11039E+01  2.09562E+01 -1.00000E+00  1.61876E-01
      21    -1     0     0   503   504  0.000000000E+00  0.000000000E+00  1.430450146E+03  1.430450146E+03  0.000000000E+00  0.00000E+00  9.000E+00
      21    -1     0     0   504   505  0.000000000E+00  0.000000000E+00 -1.670552003E+02  1.670552003E+02  0.000000000E+00  0.00000E+00  9.000E+00
       6     2     1     2   502     0  3.827547322E+01  1.569655269E+01  7.124350051E+02  7.342722566E+02  1.728603964E+02  0.00000E+00  9.000E+00
      -6     2     1     2     0   505 -1.887823387E+01 -7.764964804E+00 -1.089171218E+02  2.030233500E+02  1.701142522E+02  0.00000E+00  9.000E+00
      21     1     1     2   503   502 -1.939723935E+01 -7.931587885E+00  6.598770625E+02  6.602097399E+02  7.629394531E-06  0.00000E+00  9.000E+00
      24     2     3     3     0     0 -3.489429037E-01  5.136560252E+01  2.362620218E+02  2.551789042E+02  8.159646636E+01  0.00000E+00  9.000E+00
       5     1     3     3   502     0  3.862441612E+01 -3.566904983E+01  4.761729833E+02  4.790933524E+02  5.060000000E+00  0.00000E+00 -1.000E+00
     -24     2     4     4     0     0  2.241940858E+01 -3.208078764E+01 -5.032717072E+00  8.850554499E+01  7.922181793E+01  0.00000E+00  9.000E+00
      -5     1     4     4     0   505 -4.129764245E+01  2.431582283E+01 -1.038844047E+02  1.145178050E+02  5.060000000E+00  0.00000E+00  1.000E+00
     -11     1     6     6     0     0 -2.582567960E+01  1.395627797E+01  2.335064921E+01  3.750994856E+01  5.100000000E-04  0.00000E+00  1.000E+00
      12     1     6     6     0     0  2.547673670E+01  3.740932454E+01  2.129113726E+02  2.176689557E+02  0.000000000E+00  0.00000E+00 -1.000E+00
      11     1     8     8     0     0  4.389423545E+01  3.922719297E+00 -1.275657880E+01  4.587833841E+01  5.100000000E-04  0.00000E+00 -1.000E+00
     -12     1     8     8     0     0 -2.147482687E+01 -3.600350693E+01  7.723861729E+00  4.262720658E+01  0.000000000E+00  0.00000E+00  1.000E+00
#rwgt            1           1   1128.6117062395626               10       39571           0
<rwgt>
<wgt id='1001'>0.81104E+02</wgt>
<wgt id='1002'>0.90060E+02</wgt>
<wgt id='1003'>0.70399E+02</wgt>
<wgt id='1004'>0.69017E+02</wgt>
<wgt id='1005'>0.75274E+02</wgt>
<wgt id='1006'>0.61494E+02</wgt>
<wgt id='1007'>0.96726E+02</wgt>
<wgt id='1008'>0.10981E+03</wgt>
<wgt id='1009'>0.81164E+02</wgt>
<wgt id='2000'>0.81104E+02</wgt>
<wgt id='2001'>0.80941E+02</wgt>
<wgt id='2002'>0.80896E+02</wgt>
<wgt id='2003'>0.81155E+02</wgt>
<wgt id='2004'>0.81298E+02</wgt>
<wgt id='2005'>0.81001E+02</wgt>
<wgt id='2006'>0.81309E+02</wgt>
<wgt id='2007'>0.81168E+02</wgt>
<wgt id='2008'>0.81197E+02</wgt>
<wgt id='2009'>0.81159E+02</wgt>
<wgt id='2010'>0.81020E+02</wgt>
<wgt id='2011'>0.81039E+02</wgt>
<wgt id='2012'>0.81306E+02</wgt>
<wgt id='2013'>0.81252E+02</wgt>
<wgt id='2014'>0.81235E+02</wgt>
<wgt id='2015'>0.81141E+02</wgt>
<wgt id='2016'>0.81297E+02</wgt>
<wgt id='2017'>0.81215E+02</wgt>
<wgt id='2018'>0.81170E+02</wgt>
<wgt id='2019'>0.80626E+02</wgt>
<wgt id='2020'>0.81092E+02</wgt>
<wgt id='2021'>0.81152E+02</wgt>
<wgt id='2022'>0.81027E+02</wgt>
<wgt id='2023'>0.81583E+02</wgt>
<wgt id='2024'>0.80693E+02</wgt>
<wgt id='2025'>0.81134E+02</wgt>
<wgt id='2026'>0.80927E+02</wgt>
<wgt id='2027'>0.81111E+02</wgt>
<wgt id='2028'>0.81323E+02</wgt>
<wgt id='2029'>0.80966E+02</wgt>
<wgt id='2030'>0.81220E+02</wgt>
<wgt id='2031'>0.80661E+02</wgt>
<wgt id='2032'>0.81049E+02</wgt>
<wgt id='2033'>0.80974E+02</wgt>
<wgt id='2034'>0.80820E+02</wgt>
<wgt id='2035'>0.81190E+02</wgt>
<wgt id='2036'>0.81292E+02</wgt>
<wgt id='2037'>0.81042E+02</wgt>
<wgt id='2038'>0.80961E+02</wgt>
<wgt id='2039'>0.81071E+02</wgt>
<wgt id='2040'>0.81002E+02</wgt>
<wgt id='2041'>0.81045E+02</wgt>
<wgt id='2042'>0.81227E+02</wgt>
<wgt id='2043'>0.81067E+02</wgt>
<wgt id='2044'>0.81185E+02</wgt>
<wgt id='2045'>0.81097E+02</wgt>
<wgt id='2046'>0.81060E+02</wgt>
<wgt id='2047'>0.81105E+02</wgt>
<wgt id='2048'>0.81080E+02</wgt>
<wgt id='2049'>0.81022E+02</wgt>
<wgt id='2050'>0.81033E+02</wgt>
<wgt id='2051'>0.81078E+02</wgt>
<wgt id='2052'>0.81216E+02</wgt>
<wgt id='2053'>0.81083E+02</wgt>
<wgt id='2054'>0.81088E+02</wgt>
<wgt id='2055'>0.81086E+02</wgt>
<wgt id='2056'>0.81035E+02</wgt>
<wgt id='2057'>0.81134E+02</wgt>
<wgt id='2058'>0.81154E+02</wgt>
<wgt id='2059'>0.81100E+02</wgt>
<wgt id='2060'>0.81100E+02</wgt>
<wgt id='2061'>0.81081E+02</wgt>
<wgt id='2062'>0.81194E+02</wgt>
<wgt id='2063'>0.81127E+02</wgt>
<wgt id='2064'>0.81113E+02</wgt>
<wgt id='2065'>0.81182E+02</wgt>
<wgt id='2066'>0.81072E+02</wgt>
<wgt id='2067'>0.81110E+02</wgt>
<wgt id='2068'>0.81135E+02</wgt>
<wgt id='2069'>0.81106E+02</wgt>
<wgt id='2070'>0.81124E+02</wgt>
<wgt id='2071'>0.81096E+02</wgt>
<wgt id='2072'>0.81089E+02</wgt>
<wgt id='2073'>0.81130E+02</wgt>
<wgt id='2074'>0.81082E+02</wgt>
<wgt id='2075'>0.81083E+02</wgt>
<wgt id='2076'>0.81080E+02</wgt>
<wgt id='2077'>0.81155E+02</wgt>
<wgt id='2078'>0.81120E+02</wgt>
<wgt id='2079'>0.81080E+02</wgt>
<wgt id='2080'>0.81121E+02</wgt>
<wgt id='2081'>0.81096E+02</wgt>
<wgt id='2082'>0.81119E+02</wgt>
<wgt id='2083'>0.81146E+02</wgt>
<wgt id='2084'>0.81103E+02</wgt>
<wgt id='2085'>0.81112E+02</wgt>
<wgt id='2086'>0.81092E+02</wgt>
<wgt id='2087'>0.81117E+02</wgt>
<wgt id='2088'>0.81099E+02</wgt>
<wgt id='2089'>0.81088E+02</wgt>
<wgt id='2090'>0.81121E+02</wgt>
<wgt id='2091'>0.81106E+02</wgt>
<wgt id='2092'>0.81139E+02</wgt>
<wgt id='2093'>0.81085E+02</wgt>
<wgt id='2094'>0.81110E+02</wgt>
<wgt id='2095'>0.81127E+02</wgt>
<wgt id='2096'>0.81089E+02</wgt>
<wgt id='2097'>0.81120E+02</wgt>
<wgt id='2098'>0.81100E+02</wgt>
<wgt id='2099'>0.81116E+02</wgt>
<wgt id='2100'>0.81104E+02</wgt>
<wgt id='2101'>0.79008E+02</wgt>
<wgt id='2102'>0.83779E+02</wgt>
<wgt id='2200'>0.81217E+02</wgt>
<wgt id='2201'>0.69499E+02</wgt>
<wgt id='2202'>0.71933E+02</wgt>
<wgt id='2203'>0.74219E+02</wgt>
<wgt id='2204'>0.76284E+02</wgt>
<wgt id='2205'>0.80095E+02</wgt>
<wgt id='2206'>0.82685E+02</wgt>
<wgt id='2207'>0.86169E+02</wgt>
<wgt id='2208'>0.88678E+02</wgt>
<wgt id='2300'>0.85809E+02</wgt>
<wgt id='2301'>0.85952E+02</wgt>
<wgt id='2302'>0.85720E+02</wgt>
<wgt id='2303'>0.85759E+02</wgt>
<wgt id='2304'>0.86068E+02</wgt>
<wgt id='2305'>0.85853E+02</wgt>
<wgt id='2306'>0.85764E+02</wgt>
<wgt id='2307'>0.85885E+02</wgt>
<wgt id='2308'>0.85769E+02</wgt>
<wgt id='2309'>0.85967E+02</wgt>
<wgt id='2310'>0.85616E+02</wgt>
<wgt id='2311'>0.85658E+02</wgt>
<wgt id='2312'>0.85905E+02</wgt>
<wgt id='2313'>0.85855E+02</wgt>
<wgt id='2314'>0.85808E+02</wgt>
<wgt id='2315'>0.85660E+02</wgt>
<wgt id='2316'>0.85890E+02</wgt>
<wgt id='2317'>0.85824E+02</wgt>
<wgt id='2318'>0.85862E+02</wgt>
<wgt id='2319'>0.85811E+02</wgt>
<wgt id='2320'>0.85928E+02</wgt>
<wgt id='2321'>0.85912E+02</wgt>
<wgt id='2322'>0.85783E+02</wgt>
<wgt id='2323'>0.85780E+02</wgt>
<wgt id='2324'>0.85854E+02</wgt>
<wgt id='2325'>0.85875E+02</wgt>
<wgt id='2326'>0.85601E+02</wgt>
<wgt id='2327'>0.85901E+02</wgt>
<wgt id='2328'>0.85866E+02</wgt>
<wgt id='2329'>0.85624E+02</wgt>
<wgt id='2330'>0.86350E+02</wgt>
<wgt id='2331'>0.86070E+02</wgt>
<wgt id='2332'>0.85550E+02</wgt>
<wgt id='2333'>0.85606E+02</wgt>
<wgt id='2334'>0.85725E+02</wgt>
<wgt id='2335'>0.85766E+02</wgt>
<wgt id='2336'>0.85948E+02</wgt>
<wgt id='2337'>0.85955E+02</wgt>
<wgt id='2338'>0.85840E+02</wgt>
<wgt id='2339'>0.86196E+02</wgt>
<wgt id='2340'>0.85883E+02</wgt>
<wgt id='2341'>0.85733E+02</wgt>
<wgt id='2342'>0.85503E+02</wgt>
<wgt id='2343'>0.85484E+02</wgt>
<wgt id='2344'>0.86055E+02</wgt>
<wgt id='2345'>0.86000E+02</wgt>
<wgt id='2346'>0.85954E+02</wgt>
<wgt id='2347'>0.85725E+02</wgt>
<wgt id='2348'>0.85991E+02</wgt>
<wgt id='2349'>0.85723E+02</wgt>
<wgt id='2350'>0.85697E+02</wgt>
<wgt id='2351'>0.86105E+02</wgt>
<wgt id='2352'>0.85769E+02</wgt>
<wgt id='2353'>0.85705E+02</wgt>
<wgt id='2354'>0.85775E+02</wgt>
<wgt id='2355'>0.85920E+02</wgt>
<wgt id='2356'>0.85826E+02</wgt>
<wgt id='2357'>0.85751E+02</wgt>
<wgt id='2358'>0.85809E+02</wgt>
<wgt id='2359'>0.85771E+02</wgt>
<wgt id='2360'>0.85815E+02</wgt>
<wgt id='2361'>0.85777E+02</wgt>
<wgt id='2362'>0.85797E+02</wgt>
<wgt id='2363'>0.85852E+02</wgt>
<wgt id='2364'>0.85801E+02</wgt>
<wgt id='2365'>0.85807E+02</wgt>
<wgt id='2366'>0.85826E+02</wgt>
<wgt id='2367'>0.85795E+02</wgt>
<wgt id='2368'>0.85808E+02</wgt>
<wgt id='2369'>0.85772E+02</wgt>
<wgt id='2370'>0.85792E+02</wgt>
<wgt id='2371'>0.85826E+02</wgt>
<wgt id='2372'>0.85799E+02</wgt>
<wgt id='2373'>0.85762E+02</wgt>
<wgt id='2374'>0.85932E+02</wgt>
<wgt id='2375'>0.85792E+02</wgt>
<wgt id='2376'>0.85834E+02</wgt>
<wgt id='2377'>0.85842E+02</wgt>
<wgt id='2378'>0.85841E+02</wgt>
<wgt id='2379'>0.85775E+02</wgt>
<wgt id='2380'>0.85765E+02</wgt>
<wgt id='2381'>0.85799E+02</wgt>
<wgt id='2382'>0.85765E+02</wgt>
<wgt id='2383'>0.85840E+02</wgt>
<wgt id='2384'>0.85818E+02</wgt>
<wgt id='2385'>0.85808E+02</wgt>
<wgt id='2386'>0.85771E+02</wgt>
<wgt id='2387'>0.85791E+02</wgt>
<wgt id='2388'>0.85810E+02</wgt>
<wgt id='2389'>0.85813E+02</wgt>
<wgt id='2390'>0.85783E+02</wgt>
<wgt id='2391'>0.85805E+02</wgt>
<wgt id='2392'>0.85837E+02</wgt>
<wgt id='2393'>0.85826E+02</wgt>
<wgt id='2394'>0.85830E+02</wgt>
<wgt id='2395'>0.85815E+02</wgt>
<wgt id='2396'>0.85809E+02</wgt>
<wgt id='2397'>0.85794E+02</wgt>
<wgt id='2398'>0.85829E+02</wgt>
<wgt id='2399'>0.85832E+02</wgt>
<wgt id='2400'>0.85819E+02</wgt>
<wgt id='2401'>0.83340E+02</wgt>
<wgt id='2402'>0.88452E+02</wgt>
<wgt id='2500'>0.82470E+02</wgt>
<wgt id='2501'>0.88007E+02</wgt>
<wgt id='2600'>0.78576E+02</wgt>
<wgt id='2601'>0.78491E+02</wgt>
<wgt id='2602'>0.78519E+02</wgt>
<wgt id='2603'>0.78561E+02</wgt>
<wgt id='2604'>0.78584E+02</wgt>
<wgt id='2605'>0.78450E+02</wgt>
<wgt id='2606'>0.78526E+02</wgt>
<wgt id='2607'>0.78646E+02</wgt>
<wgt id='2608'>0.78603E+02</wgt>
<wgt id='2609'>0.78484E+02</wgt>
<wgt id='2610'>0.78512E+02</wgt>
<wgt id='2611'>0.78523E+02</wgt>
<wgt id='2612'>0.78763E+02</wgt>
<wgt id='2613'>0.78574E+02</wgt>
<wgt id='2614'>0.78529E+02</wgt>
<wgt id='2615'>0.78390E+02</wgt>
<wgt id='2616'>0.78598E+02</wgt>
<wgt id='2617'>0.78373E+02</wgt>
<wgt id='2618'>0.78461E+02</wgt>
<wgt id='2619'>0.78648E+02</wgt>
<wgt id='2620'>0.78510E+02</wgt>
<wgt id='2621'>0.78658E+02</wgt>
<wgt id='2622'>0.78886E+02</wgt>
<wgt id='2623'>0.78560E+02</wgt>
<wgt id='2624'>0.78551E+02</wgt>
<wgt id='2625'>0.78599E+02</wgt>
<wgt id='2626'>0.78582E+02</wgt>
<wgt id='2627'>0.78634E+02</wgt>
<wgt id='2628'>0.78571E+02</wgt>
<wgt id='2629'>0.78620E+02</wgt>
<wgt id='2630'>0.78686E+02</wgt>
<wgt id='2631'>0.78430E+02</wgt>
<wgt id='2632'>0.78538E+02</wgt>
<wgt id='2633'>0.78512E+02</wgt>
<wgt id='2634'>0.78447E+02</wgt>
<wgt id='2635'>0.78524E+02</wgt>
<wgt id='2636'>0.78586E+02</wgt>
<wgt id='2637'>0.78599E+02</wgt>
<wgt id='2638'>0.78581E+02</wgt>
<wgt id='2639'>0.78591E+02</wgt>
<wgt id='2640'>0.78559E+02</wgt>
<wgt id='2641'>0.78592E+02</wgt>
<wgt id='2642'>0.78589E+02</wgt>
<wgt id='2643'>0.78537E+02</wgt>
<wgt id='2644'>0.78575E+02</wgt>
<wgt id='2645'>0.78569E+02</wgt>
<wgt id='2646'>0.78651E+02</wgt>
<wgt id='2647'>0.78555E+02</wgt>
<wgt id='2648'>0.78555E+02</wgt>
<wgt id='2649'>0.78569E+02</wgt>
<wgt id='2650'>0.78579E+02</wgt>
<wgt id='2651'>0.77037E+02</wgt>
<wgt id='2652'>0.79898E+02</wgt>
<wgt id='2700'>0.75655E+02</wgt>
<wgt id='2701'>0.77037E+02</wgt>
<wgt id='2702'>0.77876E+02</wgt>
<wgt id='2703'>0.79207E+02</wgt>
<wgt id='2704'>0.79898E+02</wgt>
<wgt id='2705'>0.81337E+02</wgt>
<wgt id='2800'>0.80242E+02</wgt>
<wgt id='4000'>0.82040E+02</wgt>
<wgt id='4001'>0.82401E+02</wgt>
<wgt id='4002'>0.82017E+02</wgt>
<wgt id='4003'>0.81889E+02</wgt>
<wgt id='4004'>0.82310E+02</wgt>
<wgt id='4005'>0.82039E+02</wgt>
<wgt id='4006'>0.82190E+02</wgt>
<wgt id='4007'>0.82848E+02</wgt>
<wgt id='4008'>0.81287E+02</wgt>
<wgt id='4009'>0.82093E+02</wgt>
<wgt id='4010'>0.81816E+02</wgt>
<wgt id='4011'>0.82512E+02</wgt>
<wgt id='4012'>0.81532E+02</wgt>
<wgt id='4013'>0.82573E+02</wgt>
<wgt id='4014'>0.81649E+02</wgt>
<wgt id='4015'>0.81788E+02</wgt>
<wgt id='4016'>0.82923E+02</wgt>
<wgt id='4017'>0.82014E+02</wgt>
<wgt id='4018'>0.82110E+02</wgt>
<wgt id='4019'>0.82416E+02</wgt>
<wgt id='4020'>0.81559E+02</wgt>
<wgt id='4021'>0.82235E+02</wgt>
<wgt id='4022'>0.81689E+02</wgt>
<wgt id='4023'>0.82345E+02</wgt>
<wgt id='4024'>0.82210E+02</wgt>
<wgt id='4025'>0.82143E+02</wgt>
<wgt id='4026'>0.81909E+02</wgt>
<wgt id='4027'>0.82418E+02</wgt>
<wgt id='4028'>0.81803E+02</wgt>
<wgt id='4029'>0.82304E+02</wgt>
<wgt id='4030'>0.81293E+02</wgt>
<wgt id='4031'>0.81723E+02</wgt>
<wgt id='4032'>0.83167E+02</wgt>
<wgt id='4033'>0.82582E+02</wgt>
<wgt id='4034'>0.81319E+02</wgt>
<wgt id='4035'>0.83177E+02</wgt>
<wgt id='4036'>0.81206E+02</wgt>
<wgt id='4037'>0.84282E+02</wgt>
<wgt id='4038'>0.80397E+02</wgt>
<wgt id='4039'>0.83835E+02</wgt>
<wgt id='4040'>0.80320E+02</wgt>
<wgt id='4041'>0.82260E+02</wgt>
<wgt id='4042'>0.81702E+02</wgt>
<wgt id='4043'>0.81405E+02</wgt>
<wgt id='4044'>0.81645E+02</wgt>
<wgt id='4045'>0.82952E+02</wgt>
<wgt id='4046'>0.81640E+02</wgt>
<wgt id='4047'>0.81662E+02</wgt>
<wgt id='4048'>0.82401E+02</wgt>
<wgt id='4049'>0.82112E+02</wgt>
<wgt id='4050'>0.82024E+02</wgt>
<wgt id='4051'>0.82734E+02</wgt>
<wgt id='4052'>0.81559E+02</wgt>
<wgt id='4053'>0.82306E+02</wgt>
<wgt id='4054'>0.81160E+02</wgt>
<wgt id='4055'>0.82546E+02</wgt>
<wgt id='4056'>0.81570E+02</wgt>
<wgt id='4057'>0.81197E+02</wgt>
<wgt id='4058'>0.82582E+02</wgt>
<wgt id='4100'>0.82431E+02</wgt>
<wgt id='4101'>0.82226E+02</wgt>
<wgt id='4102'>0.81862E+02</wgt>
<wgt id='4103'>0.81683E+02</wgt>
<wgt id='4200'>0.79074E+02</wgt>
<wgt id='4201'>0.79111E+02</wgt>
<wgt id='4202'>0.79312E+02</wgt>
<wgt id='4203'>0.78411E+02</wgt>
<wgt id='4204'>0.79515E+02</wgt>
<wgt id='4205'>0.78983E+02</wgt>
<wgt id='4206'>0.79404E+02</wgt>
<wgt id='4207'>0.79340E+02</wgt>
<wgt id='4208'>0.78972E+02</wgt>
<wgt id='4209'>0.79121E+02</wgt>
<wgt id='4210'>0.79158E+02</wgt>
<wgt id='4211'>0.80038E+02</wgt>
<wgt id='4212'>0.78327E+02</wgt>
<wgt id='4213'>0.79310E+02</wgt>
<wgt id='4214'>0.78703E+02</wgt>
<wgt id='4215'>0.79077E+02</wgt>
<wgt id='4216'>0.79038E+02</wgt>
<wgt id='4217'>0.78805E+02</wgt>
<wgt id='4218'>0.79237E+02</wgt>
<wgt id='4219'>0.78149E+02</wgt>
<wgt id='4220'>0.79995E+02</wgt>
<wgt id='4221'>0.78503E+02</wgt>
<wgt id='4222'>0.79891E+02</wgt>
<wgt id='4223'>0.78837E+02</wgt>
<wgt id='4224'>0.78506E+02</wgt>
<wgt id='4225'>0.77855E+02</wgt>
<wgt id='4226'>0.80469E+02</wgt>
<wgt id='4227'>0.79914E+02</wgt>
<wgt id='4228'>0.78376E+02</wgt>
<wgt id='4229'>0.77751E+02</wgt>
<wgt id='4230'>0.80101E+02</wgt>
<wgt id='4231'>0.79304E+02</wgt>
<wgt id='4232'>0.78661E+02</wgt>
<wgt id='4233'>0.79296E+02</wgt>
<wgt id='4234'>0.78386E+02</wgt>
<wgt id='4235'>0.79753E+02</wgt>
<wgt id='4236'>0.78464E+02</wgt>
<wgt id='4237'>0.79805E+02</wgt>
<wgt id='4238'>0.77831E+02</wgt>
<wgt id='4239'>0.79036E+02</wgt>
<wgt id='4240'>0.78328E+02</wgt>
<wgt id='4241'>0.78980E+02</wgt>
<wgt id='4242'>0.79152E+02</wgt>
<wgt id='4243'>0.79133E+02</wgt>
<wgt id='4244'>0.79328E+02</wgt>
<wgt id='4245'>0.78644E+02</wgt>
<wgt id='4246'>0.79257E+02</wgt>
<wgt id='4247'>0.78619E+02</wgt>
<wgt id='4248'>0.79246E+02</wgt>
<wgt id='4249'>0.80434E+02</wgt>
<wgt id='4250'>0.77518E+02</wgt>
<wgt id='4251'>0.79268E+02</wgt>
<wgt id='4252'>0.78879E+02</wgt>
<wgt id='4253'>0.79109E+02</wgt>
<wgt id='4254'>0.78811E+02</wgt>
<wgt id='4255'>0.80060E+02</wgt>
<wgt id='4256'>0.78525E+02</wgt>
<wgt id='4257'>0.77580E+02</wgt>
<wgt id='4258'>0.79500E+02</wgt>
<wgt id='4300'>0.81144E+02</wgt>
<wgt id='4301'>0.80805E+02</wgt>
<wgt id='5000'>0.81789E+02</wgt>
<wgt id='5001'>0.81838E+02</wgt>
<wgt id='5002'>0.81727E+02</wgt>
<wgt id='5003'>0.81810E+02</wgt>
<wgt id='5004'>0.81771E+02</wgt>
<wgt id='5005'>0.81801E+02</wgt>
<wgt id='5006'>0.81770E+02</wgt>
<wgt id='5007'>0.81876E+02</wgt>
<wgt id='5008'>0.81719E+02</wgt>
<wgt id='5009'>0.81913E+02</wgt>
<wgt id='5010'>0.81662E+02</wgt>
<wgt id='5011'>0.82035E+02</wgt>
<wgt id='5012'>0.81553E+02</wgt>
<wgt id='5013'>0.81932E+02</wgt>
<wgt id='5014'>0.81688E+02</wgt>
<wgt id='5015'>0.81346E+02</wgt>
<wgt id='5016'>0.81346E+02</wgt>
<wgt id='5017'>0.82210E+02</wgt>
<wgt id='5018'>0.81506E+02</wgt>
<wgt id='5019'>0.82090E+02</wgt>
<wgt id='5020'>0.81377E+02</wgt>
<wgt id='5021'>0.81882E+02</wgt>
<wgt id='5022'>0.81646E+02</wgt>
<wgt id='5023'>0.81724E+02</wgt>
<wgt id='5024'>0.81945E+02</wgt>
<wgt id='5025'>0.81552E+02</wgt>
<wgt id='5026'>0.82053E+02</wgt>
<wgt id='5027'>0.81848E+02</wgt>
<wgt id='5028'>0.81632E+02</wgt>
<wgt id='5029'>0.82797E+02</wgt>
<wgt id='5030'>0.81222E+02</wgt>
<wgt id='5031'>0.81231E+02</wgt>
<wgt id='5032'>0.83500E+02</wgt>
<wgt id='5033'>0.81740E+02</wgt>
<wgt id='5034'>0.81842E+02</wgt>
<wgt id='5035'>0.81803E+02</wgt>
<wgt id='5036'>0.81773E+02</wgt>
<wgt id='5037'>0.81552E+02</wgt>
<wgt id='5038'>0.81923E+02</wgt>
<wgt id='5039'>0.82002E+02</wgt>
<wgt id='5040'>0.81262E+02</wgt>
<wgt id='5041'>0.81736E+02</wgt>
<wgt id='5042'>0.81843E+02</wgt>
<wgt id='5043'>0.81992E+02</wgt>
<wgt id='5044'>0.81647E+02</wgt>
<wgt id='5045'>0.81773E+02</wgt>
<wgt id='5046'>0.81904E+02</wgt>
<wgt id='5047'>0.81866E+02</wgt>
<wgt id='5048'>0.81452E+02</wgt>
<wgt id='5049'>0.81723E+02</wgt>
<wgt id='5050'>0.81955E+02</wgt>
<wgt id='5051'>0.81988E+02</wgt>
<wgt id='5052'>0.81646E+02</wgt>
<wgt id='5053'>0.81858E+02</wgt>
<wgt id='5054'>0.81980E+02</wgt>
<wgt id='5055'>0.81830E+02</wgt>
<wgt id='5056'>0.81839E+02</wgt>
<wgt id='5057'>0.81449E+02</wgt>
<wgt id='5058'>0.82029E+02</wgt>
<wgt id='5059'>0.81701E+02</wgt>
<wgt id='5060'>0.81846E+02</wgt>
<wgt id='5061'>0.82091E+02</wgt>
<wgt id='5062'>0.81943E+02</wgt>
<wgt id='5063'>0.82133E+02</wgt>
<wgt id='5064'>0.81790E+02</wgt>
<wgt id='5100'>0.81789E+02</wgt>
<wgt id='5101'>0.81789E+02</wgt>
<wgt id='6000'>0.81183E+02</wgt>
<wgt id='6001'>0.80903E+02</wgt>
<wgt id='6002'>0.80769E+02</wgt>
<wgt id='6003'>0.80981E+02</wgt>
<wgt id='6004'>0.81399E+02</wgt>
<wgt id='6005'>0.80767E+02</wgt>
<wgt id='6006'>0.81258E+02</wgt>
<wgt id='6007'>0.80782E+02</wgt>
<wgt id='6008'>0.81235E+02</wgt>
<wgt id='6009'>0.81086E+02</wgt>
<wgt id='6010'>0.80465E+02</wgt>
<wgt id='6011'>0.81131E+02</wgt>
<wgt id='6012'>0.81369E+02</wgt>
<wgt id='6013'>0.80822E+02</wgt>
<wgt id='6014'>0.80889E+02</wgt>
<wgt id='6015'>0.80402E+02</wgt>
<wgt id='6016'>0.81499E+02</wgt>
<wgt id='6017'>0.80885E+02</wgt>
<wgt id='6018'>0.80694E+02</wgt>
<wgt id='6019'>0.81244E+02</wgt>
<wgt id='6020'>0.81338E+02</wgt>
<wgt id='6021'>0.81091E+02</wgt>
<wgt id='6022'>0.81281E+02</wgt>
<wgt id='6023'>0.81167E+02</wgt>
<wgt id='6024'>0.81271E+02</wgt>
<wgt id='6025'>0.81616E+02</wgt>
<wgt id='6026'>0.81069E+02</wgt>
<wgt id='6027'>0.81197E+02</wgt>
<wgt id='6028'>0.80856E+02</wgt>
<wgt id='6029'>0.80970E+02</wgt>
<wgt id='6030'>0.80922E+02</wgt>
<wgt id='6031'>0.80942E+02</wgt>
<wgt id='6032'>0.81130E+02</wgt>
<wgt id='6033'>0.81068E+02</wgt>
<wgt id='6034'>0.81536E+02</wgt>
<wgt id='6035'>0.81244E+02</wgt>
<wgt id='6036'>0.81912E+02</wgt>
<wgt id='6037'>0.81191E+02</wgt>
<wgt id='6038'>0.81157E+02</wgt>
<wgt id='6039'>0.81425E+02</wgt>
<wgt id='6040'>0.81171E+02</wgt>
<wgt id='6041'>0.79962E+02</wgt>
<wgt id='6042'>0.82486E+02</wgt>
<wgt id='7000'>0.80173E+02</wgt>
<wgt id='7001'>0.79906E+02</wgt>
<wgt id='7002'>0.80093E+02</wgt>
<wgt id='7003'>0.79966E+02</wgt>
<wgt id='7004'>0.80034E+02</wgt>
<wgt id='7005'>0.80080E+02</wgt>
<wgt id='7006'>0.79919E+02</wgt>
<wgt id='7007'>0.80531E+02</wgt>
<wgt id='7008'>0.79483E+02</wgt>
<wgt id='7009'>0.79579E+02</wgt>
<wgt id='7010'>0.80435E+02</wgt>
<wgt id='7011'>0.80299E+02</wgt>
<wgt id='7012'>0.79707E+02</wgt>
<wgt id='7013'>0.79915E+02</wgt>
<wgt id='7014'>0.80077E+02</wgt>
<wgt id='7015'>0.80035E+02</wgt>
<wgt id='7016'>0.79737E+02</wgt>
<wgt id='7017'>0.79973E+02</wgt>
<wgt id='7018'>0.80034E+02</wgt>
<wgt id='7019'>0.80060E+02</wgt>
<wgt id='7020'>0.79954E+02</wgt>
<wgt id='7021'>0.80682E+02</wgt>
<wgt id='7022'>0.79335E+02</wgt>
<wgt id='7023'>0.79253E+02</wgt>
<wgt id='7024'>0.80759E+02</wgt>
<wgt id='7025'>0.78613E+02</wgt>
<wgt id='7026'>0.81335E+02</wgt>
<wgt id='7027'>0.79401E+02</wgt>
<wgt id='7028'>0.80660E+02</wgt>
<wgt id='8000'>0.80303E+02</wgt>
<wgt id='8001'>0.80295E+02</wgt>
<wgt id='8002'>0.80329E+02</wgt>
<wgt id='8003'>0.80303E+02</wgt>
<wgt id='8004'>0.80301E+02</wgt>
<wgt id='8005'>0.80150E+02</wgt>
<wgt id='8006'>0.80417E+02</wgt>
<wgt id='8007'>0.80513E+02</wgt>
<wgt id='8008'>0.80495E+02</wgt>
<wgt id='8009'>0.80664E+02</wgt>
<wgt id='8010'>0.80195E+02</wgt>
<wgt id='8011'>0.80336E+02</wgt>
<wgt id='8012'>0.79963E+02</wgt>
<wgt id='8013'>0.80108E+02</wgt>
<wgt id='8014'>0.80550E+02</wgt>
<wgt id='8015'>0.80254E+02</wgt>
<wgt id='8016'>0.80412E+02</wgt>
<wgt id='8017'>0.80386E+02</wgt>
<wgt id='8018'>0.80588E+02</wgt>
<wgt id='8019'>0.80262E+02</wgt>
<wgt id='8020'>0.80430E+02</wgt>
<wgt id='8021'>0.80184E+02</wgt>
<wgt id='8022'>0.80527E+02</wgt>
<wgt id='8023'>0.80098E+02</wgt>
<wgt id='8024'>0.79845E+02</wgt>
<wgt id='8025'>0.80056E+02</wgt>
<wgt id='8026'>0.80362E+02</wgt>
<wgt id='8027'>0.80428E+02</wgt>
<wgt id='8028'>0.80347E+02</wgt>
<wgt id='8029'>0.80923E+02</wgt>
<wgt id='3000'>0.81104E+02</wgt>
<wgt id='3001'>0.80479E+02</wgt>
<wgt id='3002'>0.80764E+02</wgt>
<wgt id='3003'>0.82290E+02</wgt>
<wgt id='3004'>0.82488E+02</wgt>
<wgt id='3005'>0.82144E+02</wgt>
<wgt id='3006'>0.81684E+02</wgt>
<wgt id='3007'>0.79502E+02</wgt>
<wgt id='3008'>0.79900E+02</wgt>
<wgt id='3009'>0.81314E+02</wgt>
<wgt id='3010'>0.83625E+02</wgt>
<wgt id='3011'>0.80990E+02</wgt>
<wgt id='3012'>0.81035E+02</wgt>
<wgt id='3013'>0.78798E+02</wgt>
<wgt id='3014'>0.80830E+02</wgt>
<wgt id='3015'>0.79910E+02</wgt>
<wgt id='3016'>0.81971E+02</wgt>
<wgt id='3017'>0.82661E+02</wgt>
<wgt id='3018'>0.80582E+02</wgt>
<wgt id='3019'>0.79874E+02</wgt>
<wgt id='3020'>0.80409E+02</wgt>
<wgt id='3021'>0.78116E+02</wgt>
<wgt id='3022'>0.79186E+02</wgt>
<wgt id='3023'>0.79861E+02</wgt>
<wgt id='3024'>0.81074E+02</wgt>
<wgt id='3025'>0.80018E+02</wgt>
<wgt id='3026'>0.79616E+02</wgt>
<wgt id='3027'>0.81281E+02</wgt>
<wgt id='3028'>0.79009E+02</wgt>
<wgt id='3029'>0.82105E+02</wgt>
<wgt id='3030'>0.81774E+02</wgt>
<wgt id='3031'>0.80325E+02</wgt>
<wgt id='3032'>0.79508E+02</wgt>
<wgt id='3033'>0.80561E+02</wgt>
<wgt id='3034'>0.82865E+02</wgt>
<wgt id='3035'>0.79731E+02</wgt>
<wgt id='3036'>0.79003E+02</wgt>
<wgt id='3037'>0.78803E+02</wgt>
<wgt id='3038'>0.81380E+02</wgt>
<wgt id='3039'>0.79323E+02</wgt>
<wgt id='3040'>0.81687E+02</wgt>
<wgt id='3041'>0.82067E+02</wgt>
<wgt id='3042'>0.82272E+02</wgt>
<wgt id='3043'>0.82632E+02</wgt>
<wgt id='3044'>0.82712E+02</wgt>
<wgt id='3045'>0.82003E+02</wgt>
<wgt id='3046'>0.81606E+02</wgt>
<wgt id='3047'>0.80305E+02</wgt>
<wgt id='3048'>0.81490E+02</wgt>
<wgt id='3049'>0.79761E+02</wgt>
<wgt id='3050'>0.80469E+02</wgt>
<wgt id='3051'>0.80441E+02</wgt>
<wgt id='3052'>0.79536E+02</wgt>
<wgt id='3053'>0.82109E+02</wgt>
<wgt id='3054'>0.79945E+02</wgt>
<wgt id='3055'>0.81154E+02</wgt>
<wgt id='3056'>0.81202E+02</wgt>
<wgt id='3057'>0.79513E+02</wgt>
<wgt id='3058'>0.81564E+02</wgt>
<wgt id='3059'>0.81572E+02</wgt>
<wgt id='3060'>0.80008E+02</wgt>
<wgt id='3061'>0.80241E+02</wgt>
<wgt id='3062'>0.81135E+02</wgt>
<wgt id='3063'>0.80106E+02</wgt>
<wgt id='3064'>0.82559E+02</wgt>
<wgt id='3065'>0.79554E+02</wgt>
<wgt id='3066'>0.83117E+02</wgt>
<wgt id='3067'>0.80425E+02</wgt>
<wgt id='3068'>0.80934E+02</wgt>
<wgt id='3069'>0.80932E+02</wgt>
<wgt id='3070'>0.81530E+02</wgt>
<wgt id='3071'>0.81380E+02</wgt>
<wgt id='3072'>0.80721E+02</wgt>
<wgt id='3073'>0.81815E+02</wgt>
<wgt id='3074'>0.80989E+02</wgt>
<wgt id='3075'>0.82153E+02</wgt>
<wgt id='3076'>0.83107E+02</wgt>
<wgt id='3077'>0.81932E+02</wgt>
<wgt id='3078'>0.79531E+02</wgt>
<wgt id='3079'>0.80893E+02</wgt>
<wgt id='3080'>0.83318E+02</wgt>
<wgt id='3081'>0.81616E+02</wgt>
<wgt id='3082'>0.81971E+02</wgt>
<wgt id='3083'>0.82048E+02</wgt>
<wgt id='3084'>0.80799E+02</wgt>
<wgt id='3085'>0.80888E+02</wgt>
<wgt id='3086'>0.82396E+02</wgt>
<wgt id='3087'>0.80845E+02</wgt>
<wgt id='3088'>0.82678E+02</wgt>
<wgt id='3089'>0.84764E+02</wgt>
<wgt id='3090'>0.82299E+02</wgt>
<wgt id='3091'>0.81418E+02</wgt>
<wgt id='3092'>0.81942E+02</wgt>
<wgt id='3093'>0.81709E+02</wgt>
<wgt id='3094'>0.82140E+02</wgt>
<wgt id='3095'>0.80110E+02</wgt>
<wgt id='3096'>0.80758E+02</wgt>
<wgt id='3097'>0.83650E+02</wgt>
<wgt id='3098'>0.82034E+02</wgt>
<wgt id='3099'>0.80010E+02</wgt>
<wgt id='3100'>0.80515E+02</wgt>
<wgt id='3200'>0.78643E+02</wgt>
<wgt id='3201'>0.78956E+02</wgt>
<wgt id='3202'>0.76783E+02</wgt>
<wgt id='3203'>0.78964E+02</wgt>
<wgt id='3204'>0.77949E+02</wgt>
<wgt id='3205'>0.79231E+02</wgt>
<wgt id='3206'>0.79725E+02</wgt>
<wgt id='3207'>0.79661E+02</wgt>
<wgt id='3208'>0.78894E+02</wgt>
<wgt id='3209'>0.78531E+02</wgt>
<wgt id='3210'>0.78783E+02</wgt>
<wgt id='3211'>0.79214E+02</wgt>
<wgt id='3212'>0.78330E+02</wgt>
<wgt id='3213'>0.78956E+02</wgt>
<wgt id='3214'>0.78490E+02</wgt>
<wgt id='3215'>0.78772E+02</wgt>
<wgt id='3216'>0.79432E+02</wgt>
<wgt id='3217'>0.78849E+02</wgt>
<wgt id='3218'>0.79330E+02</wgt>
<wgt id='3219'>0.78440E+02</wgt>
<wgt id='3220'>0.77925E+02</wgt>
<wgt id='3221'>0.78797E+02</wgt>
<wgt id='3222'>0.79875E+02</wgt>
<wgt id='3223'>0.79416E+02</wgt>
<wgt id='3224'>0.78451E+02</wgt>
<wgt id='3225'>0.79466E+02</wgt>
<wgt id='3226'>0.78235E+02</wgt>
<wgt id='3227'>0.77887E+02</wgt>
<wgt id='3228'>0.77640E+02</wgt>
<wgt id='3229'>0.79407E+02</wgt>
<wgt id='3230'>0.79000E+02</wgt>
<wgt id='3231'>0.78895E+02</wgt>
<wgt id='3232'>0.79033E+02</wgt>
<wgt id='3233'>0.79381E+02</wgt>
<wgt id='3234'>0.77857E+02</wgt>
<wgt id='3235'>0.78587E+02</wgt>
<wgt id='3236'>0.78457E+02</wgt>
<wgt id='3237'>0.78598E+02</wgt>
<wgt id='3238'>0.77746E+02</wgt>
<wgt id='3239'>0.77935E+02</wgt>
<wgt id='3240'>0.77705E+02</wgt>
<wgt id='3241'>0.79626E+02</wgt>
<wgt id='3242'>0.78536E+02</wgt>
<wgt id='3243'>0.78184E+02</wgt>
<wgt id='3244'>0.78578E+02</wgt>
<wgt id='3245'>0.79121E+02</wgt>
<wgt id='3246'>0.77201E+02</wgt>
<wgt id='3247'>0.78456E+02</wgt>
<wgt id='3248'>0.78393E+02</wgt>
<wgt id='3249'>0.77469E+02</wgt>
<wgt id='3250'>0.78641E+02</wgt>
<wgt id='3251'>0.78468E+02</wgt>
<wgt id='3252'>0.79305E+02</wgt>
<wgt id='3253'>0.78290E+02</wgt>
<wgt id='3254'>0.78181E+02</wgt>
<wgt id='3255'>0.78125E+02</wgt>
<wgt id='3256'>0.78843E+02</wgt>
<wgt id='3257'>0.78455E+02</wgt>
<wgt id='3258'>0.78397E+02</wgt>
<wgt id='3259'>0.78218E+02</wgt>
<wgt id='3260'>0.78712E+02</wgt>
<wgt id='3261'>0.78697E+02</wgt>
<wgt id='3262'>0.79160E+02</wgt>
<wgt id='3263'>0.79468E+02</wgt>
<wgt id='3264'>0.78534E+02</wgt>
<wgt id='3265'>0.78883E+02</wgt>
<wgt id='3266'>0.78598E+02</wgt>
<wgt id='3267'>0.78501E+02</wgt>
<wgt id='3268'>0.78411E+02</wgt>
<wgt id='3269'>0.78699E+02</wgt>
<wgt id='3270'>0.79459E+02</wgt>
<wgt id='3271'>0.78837E+02</wgt>
<wgt id='3272'>0.79077E+02</wgt>
<wgt id='3273'>0.78663E+02</wgt>
<wgt id='3274'>0.78161E+02</wgt>
<wgt id='3275'>0.79196E+02</wgt>
<wgt id='3276'>0.77939E+02</wgt>
<wgt id='3277'>0.77948E+02</wgt>
<wgt id='3278'>0.79162E+02</wgt>
<wgt id='3279'>0.79172E+02</wgt>
<wgt id='3280'>0.78658E+02</wgt>
<wgt id='3281'>0.79294E+02</wgt>
<wgt id='3282'>0.79087E+02</wgt>
<wgt id='3283'>0.78807E+02</wgt>
<wgt id='3284'>0.78671E+02</wgt>
<wgt id='3285'>0.78381E+02</wgt>
<wgt id='3286'>0.77661E+02</wgt>
<wgt id='3287'>0.79421E+02</wgt>
<wgt id='3288'>0.78383E+02</wgt>
<wgt id='3289'>0.79695E+02</wgt>
<wgt id='3290'>0.78598E+02</wgt>
<wgt id='3291'>0.77222E+02</wgt>
<wgt id='3292'>0.77736E+02</wgt>
<wgt id='3293'>0.78558E+02</wgt>
<wgt id='3294'>0.77957E+02</wgt>
<wgt id='3295'>0.78102E+02</wgt>
<wgt id='3296'>0.79806E+02</wgt>
<wgt id='3297'>0.78302E+02</wgt>
<wgt id='3298'>0.78058E+02</wgt>
<wgt id='3299'>0.78738E+02</wgt>
<wgt id='3300'>0.79725E+02</wgt>
<wgt id='3301'>0.77037E+02</wgt>
<wgt id='3302'>0.79898E+02</wgt>
<wgt id='3400'>0.78552E+02</wgt>
<wgt id='3401'>0.78797E+02</wgt>
<wgt id='3402'>0.77507E+02</wgt>
<wgt id='3403'>0.79111E+02</wgt>
<wgt id='3404'>0.79727E+02</wgt>
<wgt id='3405'>0.79126E+02</wgt>
<wgt id='3406'>0.79412E+02</wgt>
<wgt id='3407'>0.78359E+02</wgt>
<wgt id='3408'>0.79604E+02</wgt>
<wgt id='3409'>0.79614E+02</wgt>
<wgt id='3410'>0.79311E+02</wgt>
<wgt id='3411'>0.79583E+02</wgt>
<wgt id='3412'>0.79345E+02</wgt>
<wgt id='3413'>0.78337E+02</wgt>
<wgt id='3414'>0.77981E+02</wgt>
<wgt id='3415'>0.78465E+02</wgt>
<wgt id='3416'>0.78224E+02</wgt>
<wgt id='3417'>0.78563E+02</wgt>
<wgt id='3418'>0.77895E+02</wgt>
<wgt id='3419'>0.77820E+02</wgt>
<wgt id='3420'>0.78469E+02</wgt>
<wgt id='3421'>0.78461E+02</wgt>
<wgt id='3422'>0.78335E+02</wgt>
<wgt id='3423'>0.79400E+02</wgt>
<wgt id='3424'>0.79019E+02</wgt>
<wgt id='3425'>0.78310E+02</wgt>
<wgt id='3426'>0.78327E+02</wgt>
<wgt id='3427'>0.77946E+02</wgt>
<wgt id='3428'>0.78855E+02</wgt>
<wgt id='3429'>0.77875E+02</wgt>
<wgt id='3430'>0.78365E+02</wgt>
<wgt id='3431'>0.78623E+02</wgt>
<wgt id='3432'>0.79137E+02</wgt>
<wgt id='3433'>0.77824E+02</wgt>
<wgt id='3434'>0.79306E+02</wgt>
<wgt id='3435'>0.79475E+02</wgt>
<wgt id='3436'>0.78399E+02</wgt>
<wgt id='3437'>0.78920E+02</wgt>
<wgt id='3438'>0.77838E+02</wgt>
<wgt id='3439'>0.77628E+02</wgt>
<wgt id='3440'>0.78946E+02</wgt>
<wgt id='3441'>0.78730E+02</wgt>
<wgt id='3442'>0.77516E+02</wgt>
<wgt id='3443'>0.78768E+02</wgt>
<wgt id='3444'>0.77914E+02</wgt>
<wgt id='3445'>0.77993E+02</wgt>
<wgt id='3446'>0.78975E+02</wgt>
<wgt id='3447'>0.79050E+02</wgt>
<wgt id='3448'>0.79636E+02</wgt>
<wgt id='3449'>0.79338E+02</wgt>
<wgt id='3450'>0.78414E+02</wgt>
<wgt id='3451'>0.79262E+02</wgt>
<wgt id='3452'>0.78428E+02</wgt>
<wgt id='3453'>0.77252E+02</wgt>
<wgt id='3454'>0.78318E+02</wgt>
<wgt id='3455'>0.79558E+02</wgt>
<wgt id='3456'>0.78567E+02</wgt>
<wgt id='3457'>0.79453E+02</wgt>
<wgt id='3458'>0.78446E+02</wgt>
<wgt id='3459'>0.78516E+02</wgt>
<wgt id='3460'>0.78369E+02</wgt>
<wgt id='3461'>0.77607E+02</wgt>
<wgt id='3462'>0.78875E+02</wgt>
<wgt id='3463'>0.77553E+02</wgt>
<wgt id='3464'>0.78703E+02</wgt>
<wgt id='3465'>0.79341E+02</wgt>
<wgt id='3466'>0.79061E+02</wgt>
<wgt id='3467'>0.78043E+02</wgt>
<wgt id='3468'>0.78214E+02</wgt>
<wgt id='3469'>0.78050E+02</wgt>
<wgt id='3470'>0.77928E+02</wgt>
<wgt id='3471'>0.78246E+02</wgt>
<wgt id='3472'>0.77258E+02</wgt>
<wgt id='3473'>0.79813E+02</wgt>
<wgt id='3474'>0.78062E+02</wgt>
<wgt id='3475'>0.79035E+02</wgt>
<wgt id='3476'>0.78313E+02</wgt>
<wgt id='3477'>0.77634E+02</wgt>
<wgt id='3478'>0.79799E+02</wgt>
<wgt id='3479'>0.78514E+02</wgt>
<wgt id='3480'>0.78464E+02</wgt>
<wgt id='3481'>0.78972E+02</wgt>
<wgt id='3482'>0.78783E+02</wgt>
<wgt id='3483'>0.78129E+02</wgt>
<wgt id='3484'>0.78173E+02</wgt>
<wgt id='3485'>0.78014E+02</wgt>
<wgt id='3486'>0.76733E+02</wgt>
<wgt id='3487'>0.78373E+02</wgt>
<wgt id='3488'>0.78489E+02</wgt>
<wgt id='3489'>0.77514E+02</wgt>
<wgt id='3490'>0.79607E+02</wgt>
<wgt id='3491'>0.79154E+02</wgt>
<wgt id='3492'>0.78497E+02</wgt>
<wgt id='3493'>0.79017E+02</wgt>
<wgt id='3494'>0.76474E+02</wgt>
<wgt id='3495'>0.79054E+02</wgt>
<wgt id='3496'>0.77669E+02</wgt>
<wgt id='3497'>0.78309E+02</wgt>
<wgt id='3498'>0.79214E+02</wgt>
<wgt id='3499'>0.78162E+02</wgt>
<wgt id='3500'>0.79537E+02</wgt>
</rwgt>
</event>
<event>
     13 322200  8.11039E+01  1.43426E+02 -1.00000E+00  1.15752E-01
      21    -1     0     0   502   503  0.000000000E+00  0.000000000E+00  1.526858950E+03  1.526858950E+03  0.000000000E+00  0.00000E+00  9.000E+00
      21    -1     0     0   503   504  0.000000000E+00  0.000000000E+00 -1.214451120E+02  1.214451120E+02  0.000000000E+00  0.00000E+00  9.000E+00
       6     2     1     2   502     0  8.613409901E+01  2.800299511E+01  1.175889033E+03  1.191848818E+03  1.720038864E+02  0.00000E+00  9.000E+00
      -6     2     1     2     0   505 -8.056473980E+01  1.153145775E+02  2.220700895E+02  3.128358961E+02  1.695967103E+02  0.00000E+00  9.000E+00
      21     1     1     2   505   504 -5.569359208E+00 -1.433175726E+02  7.454715998E+00  1.436193482E+02  7.152557373E-07  0.00000E+00  9.000E+00
      24     2     3     3     0     0  2.275644859E+01  2.996476918E+01  2.929409054E+02  3.066123670E+02  8.234698635E+01  0.00000E+00  9.000E+00
       5     1     3     3   502     0  6.337765042E+01 -1.961774075E+00  8.829481272E+02  8.852364510E+02  5.060000000E+00  0.00000E+00 -1.000E+00
     -24     2     4     4     0     0  1.268640876E+01  2.569835622E+01  5.355609241E+01  1.003519799E+02  7.988062567E+01  0.00000E+00  9.000E+00
      -5     1     4     4     0   505 -9.325114856E+01  8.961622129E+01  1.685139971E+02  2.124839162E+02  5.060000000E+00  0.00000E+00  1.000E+00
     -13     1     6     6     0     0 -3.755791723E+00 -2.722336970E+01  9.191382360E+01  9.593424816E+01  1.057000000E-01  0.00000E+00  1.000E+00
      14     1     6     6     0     0  2.651224031E+01  5.718813888E+01  2.010270818E+02  2.106781188E+02  0.000000000E+00  0.00000E+00 -1.000E+00
      11     1     8     8     0     0  7.321875365E+00  5.147571401E+01  5.266612465E+01  7.400729476E+01  5.100000000E-04  0.00000E+00 -1.000E+00
     -12     1     8     8     0     0  5.364533394E+00 -2.577735779E+01  8.899677564E-01  2.634468515E+01  0.000000000E+00  0.00000E+00  1.000E+00
#rwgt            1           1   710.27145542437222               10       39924           0
<rwgt>
<wgt id='1001'>0.81104E+02</wgt>
<wgt id='1002'>0.91577E+02</wgt>
<wgt id='1003'>0.68711E+02</wgt>
<wgt id='1004'>0.69336E+02</wgt>
<wgt id='1005'>0.76857E+02</wgt>
<wgt id='1006'>0.60385E+02</wgt>
<wgt id='1007'>0.96181E+02</wgt>
<wgt id='1008'>0.11110E+03</wgt>
<wgt id='1009'>0.78616E+02</wgt>
<wgt id='2000'>0.81104E+02</wgt>
<wgt id='2001'>0.81022E+02</wgt>
<wgt id='2002'>0.81099E+02</wgt>
<wgt id='2003'>0.81042E+02</wgt>
<wgt id='2004'>0.81499E+02</wgt>
<wgt id='2005'>0.80668E+02</wgt>
<wgt id='2006'>0.81204E+02</wgt>
<wgt id='2007'>0.81178E+02</wgt>
<wgt id='2008'>0.81149E+02</wgt>
<wgt id='2009'>0.81074E+02</wgt>
<wgt id='2010'>0.80900E+02</wgt>
<wgt id='2011'>0.81285E+02</wgt>
<wgt id='2012'>0.81486E+02</wgt>
<wgt id='2013'>0.80959E+02</wgt>
<wgt id='2014'>0.81109E+02</wgt>
<wgt id='2015'>0.81371E+02</wgt>
<wgt id='2016'>0.80924E+02</wgt>
<wgt id='2017'>0.81035E+02</wgt>
<wgt id='2018'>0.80739E+02</wgt>
<wgt id='2019'>0.81131E+02</wgt>
<wgt id='2020'>0.81006E+02</wgt>
<wgt id='2021'>0.81214E+02</wgt>
<wgt id='2022'>0.81223E+02</wgt>
<wgt id='2023'>0.80565E+02</wgt>
<wgt id='2024'>0.81130E+02</wgt>
<wgt id='2025'>0.80944E+02</wgt>
<wgt id='2026'>0.80886E+02</wgt>
<wgt id='2027'>0.81731E+02</wgt>
<wgt id='2028'>0.80228E+02</wgt>
<wgt id='2029'>0.80840E+02</wgt>
<wgt id='2030'>0.81446E+02</wgt>
<wgt id='2031'>0.80709E+02</wgt>
<wgt id='2032'>0.81047E+02</wgt>
<wgt id='2033'>0.80901E+02</wgt>
<wgt id='2034'>0.80552E+02</wgt>
<wgt id='2035'>0.81463E+02</wgt>
<wgt id='2036'>0.81267E+02</wgt>
<wgt id='2037'>0.80985E+02</wgt>
<wgt id='2038'>0.80911E+02</wgt>
<wgt id='2039'>0.81016E+02</wgt>
<wgt id='2040'>0.81036E+02</wgt>
<wgt id='2041'>0.80816E+02</wgt>
<wgt id='2042'>0.81242E+02</wgt>
<wgt id='2043'>0.81108E+02</wgt>
<wgt id='2044'>0.81146E+02</wgt>
<wgt id='2045'>0.81200E+02</wgt>
<wgt id='2046'>0.80833E+02</wgt>
<wgt id='2047'>0.81138E+02</wgt>
<wgt id='2048'>0.81098E+02</wgt>
<wgt id='2049'>0.80964E+02</wgt>
<wgt id='2050'>0.81066E+02</wgt>
<wgt id='2051'>0.81001E+02</wgt>
<wgt id='2052'>0.81307E+02</wgt>
<wgt id='2053'>0.81155E+02</wgt>
<wgt id='2054'>0.81103E+02</wgt>
<wgt id='2055'>0.80990E+02</wgt>
<wgt id='2056'>0.81017E+02</wgt>
<wgt id='2057'>0.81135E+02</wgt>
<wgt id='2058'>0.81167E+02</wgt>
<wgt id='2059'>0.81166E+02</wgt>
<wgt id='2060'>0.81049E+02</wgt>
<wgt id='2061'>0.81031E+02</wgt>
<wgt id='2062'>0.81192E+02</wgt>
<wgt id='2063'>0.81101E+02</wgt>
<wgt id='2064'>0.81121E+02</wgt>
<wgt id='2065'>0.81198E+02</wgt>
<wgt id='2066'>0.81055E+02</wgt>
<wgt id='2067'>0.81008E+02</wgt>
<wgt id='2068'>0.81253E+02</wgt>
<wgt id='2069'>0.81097E+02</wgt>
<wgt id='2070'>0.81157E+02</wgt>
<wgt id='2071'>0.81038E+02</wgt>
<wgt id='2072'>0.81048E+02</wgt>
<wgt id='2073'>0.81134E+02</wgt>
<wgt id='2074'>0.81058E+02</wgt>
<wgt id='2075'>0.81098E+02</wgt>
<wgt id='2076'>0.81101E+02</wgt>
<wgt id='2077'>0.81176E+02</wgt>
<wgt id='2078'>0.81125E+02</wgt>
<wgt id='2079'>0.81058E+02</wgt>
<wgt id='2080'>0.81104E+02</wgt>
<wgt id='2081'>0.81068E+02</wgt>
<wgt id='2082'>0.81121E+02</wgt>
<wgt id='2083'>0.81215E+02</wgt>
<wgt id='2084'>0.81094E+02</wgt>
<wgt id='2085'>0.81130E+02</wgt>
<wgt id='2086'>0.81088E+02</wgt>
<wgt id='2087'>0.81120E+02</wgt>
<wgt id='2088'>0.81092E+02</wgt>
<wgt id='2089'>0.81074E+02</wgt>
<wgt id='2090'>0.81137E+02</wgt>
<wgt id='2091'>0.81121E+02</wgt>
<wgt id='2092'>0.81166E+02</wgt>
<wgt id='2093'>0.81052E+02</wgt>
<wgt id='2094'>0.81100E+02</wgt>
<wgt id='2095'>0.81148E+02</wgt>
<wgt id='2096'>0.81080E+02</wgt>
<wgt id='2097'>0.81134E+02</wgt>
<wgt id='2098'>0.81116E+02</wgt>
<wgt id='2099'>0.81123E+02</wgt>
<wgt id='2100'>0.81104E+02</wgt>
<wgt id='2101'>0.78503E+02</wgt>
<wgt id='2102'>0.83216E+02</wgt>
<wgt id='2200'>0.80724E+02</wgt>
<wgt id='2201'>0.69860E+02</wgt>
<wgt id='2202'>0.71957E+02</wgt>
<wgt id='2203'>0.74496E+02</wgt>
<wgt id='2204'>0.76080E+02</wgt>
<wgt id='2205'>0.79431E+02</wgt>
<wgt id='2206'>0.82272E+02</wgt>
<wgt id='2207'>0.85227E+02</wgt>
<wgt id='2208'>0.88469E+02</wgt>
<wgt id='2300'>0.87642E+02</wgt>
<wgt id='2301'>0.87678E+02</wgt>
<wgt id='2302'>0.87634E+02</wgt>
<wgt id='2303'>0.87633E+02</wgt>
<wgt id='2304'>0.88004E+02</wgt>
<wgt id='2305'>0.87685E+02</wgt>
<wgt id='2306'>0.87599E+02</wgt>
<wgt id='2307'>0.87667E+02</wgt>
<wgt id='2308'>0.87423E+02</wgt>
<wgt id='2309'>0.87550E+02</wgt>
<wgt id='2310'>0.87408E+02</wgt>
<wgt id='2311'>0.87680E+02</wgt>
<wgt id='2312'>0.87883E+02</wgt>
<wgt id='2313'>0.87703E+02</wgt>
<wgt id='2314'>0.87694E+02</wgt>
<wgt id='2315'>0.87595E+02</wgt>
<wgt id='2316'>0.87751E+02</wgt>
<wgt id='2317'>0.87650E+02</wgt>
<wgt id='2318'>0.87787E+02</wgt>
<wgt id='2319'>0.87638E+02</wgt>
<wgt id='2320'>0.87645E+02</wgt>
<wgt id='2321'>0.87557E+02</wgt>
<wgt id='2322'>0.87551E+02</wgt>
<wgt id='2323'>0.87455E+02</wgt>
<wgt id='2324'>0.87478E+02</wgt>
<wgt id='2325'>0.87739E+02</wgt>
<wgt id='2326'>0.87701E+02</wgt>
<wgt id='2327'>0.87684E+02</wgt>
<wgt id='2328'>0.87343E+02</wgt>
<wgt id='2329'>0.87594E+02</wgt>
<wgt id='2330'>0.88078E+02</wgt>
<wgt id='2331'>0.87709E+02</wgt>
<wgt id='2332'>0.87637E+02</wgt>
<wgt id='2333'>0.87685E+02</wgt>
<wgt id='2334'>0.87644E+02</wgt>
<wgt id='2335'>0.87086E+02</wgt>
<wgt id='2336'>0.87534E+02</wgt>
<wgt id='2337'>0.87992E+02</wgt>
<wgt id='2338'>0.87524E+02</wgt>
<wgt id='2339'>0.87226E+02</wgt>
<wgt id='2340'>0.87945E+02</wgt>
<wgt id='2341'>0.87960E+02</wgt>
<wgt id='2342'>0.87809E+02</wgt>
<wgt id='2343'>0.87763E+02</wgt>
<wgt id='2344'>0.87477E+02</wgt>
<wgt id='2345'>0.87317E+02</wgt>
<wgt id='2346'>0.88368E+02</wgt>
<wgt id='2347'>0.87887E+02</wgt>
<wgt id='2348'>0.87325E+02</wgt>
<wgt id='2349'>0.87694E+02</wgt>
<wgt id='2350'>0.86919E+02</wgt>
<wgt id='2351'>0.87993E+02</wgt>
<wgt id='2352'>0.87382E+02</wgt>
<wgt id='2353'>0.87713E+02</wgt>
<wgt id='2354'>0.87867E+02</wgt>
<wgt id='2355'>0.87656E+02</wgt>
<wgt id='2356'>0.87549E+02</wgt>
<wgt id='2357'>0.87905E+02</wgt>
<wgt id='2358'>0.87507E+02</wgt>
<wgt id='2359'>0.87554E+02</wgt>
<wgt id='2360'>0.87785E+02</wgt>
<wgt id='2361'>0.87771E+02</wgt>
<wgt id='2362'>0.87676E+02</wgt>
<wgt id='2363'>0.87535E+02</wgt>
<wgt id='2364'>0.87787E+02</wgt>
<wgt id='2365'>0.87544E+02</wgt>
<wgt id='2366'>0.87687E+02</wgt>
<wgt id='2367'>0.87610E+02</wgt>
<wgt id='2368'>0.87584E+02</wgt>
<wgt id='2369'>0.87494E+02</wgt>
<wgt id='2370'>0.87493E+02</wgt>
<wgt id='2371'>0.87656E+02</wgt>
<wgt id='2372'>0.87762E+02</wgt>
<wgt id='2373'>0.87627E+02</wgt>
<wgt id='2374'>0.88001E+02</wgt>
<wgt id='2375'>0.87710E+02</wgt>
<wgt id='2376'>0.87757E+02</wgt>
<wgt id='2377'>0.87678E+02</wgt>
<wgt id='2378'>0.87764E+02</wgt>
<wgt id='2379'>0.87446E+02</wgt>
<wgt id='2380'>0.87442E+02</wgt>
<wgt id='2381'>0.87600E+02</wgt>
<wgt id='2382'>0.87474E+02</wgt>
<wgt id='2383'>0.87779E+02</wgt>
<wgt id='2384'>0.87713E+02</wgt>
<wgt id='2385'>0.87630E+02</wgt>
<wgt id='2386'>0.87633E+02</wgt>
<wgt id='2387'>0.87601E+02</wgt>
<wgt id='2388'>0.87610E+02</wgt>
<wgt id='2389'>0.87641E+02</wgt>
<wgt id='2390'>0.87508E+02</wgt>
<wgt id='2391'>0.87538E+02</wgt>
<wgt id='2392'>0.87682E+02</wgt>
<wgt id='2393'>0.87722E+02</wgt>
<wgt id='2394'>0.87667E+02</wgt>
<wgt id='2395'>0.87634E+02</wgt>
<wgt id='2396'>0.87623E+02</wgt>
<wgt id='2397'>0.87615E+02</wgt>
<wgt id='2398'>0.87704E+02</wgt>
<wgt id='2399'>0.87698E+02</wgt>
<wgt id='2400'>0.87647E+02</wgt>
<wgt id='2401'>0.85840E+02</wgt>
<wgt id='2402'>0.90054E+02</wgt>
<wgt id='2500'>0.84101E+02</wgt>
<wgt id='2501'>0.89427E+02</wgt>
<wgt id='2600'>0.79909E+02</wgt>
<wgt id='2601'>0.79621E+02</wgt>
<wgt id='2602'>0.79998E+02</wgt>
<wgt id='2603'>0.79885E+02</wgt>
<wgt id='2604'>0.80013E+02</wgt>
<wgt id='2605'>0.79786E+02</wgt>
<wgt id='2606'>0.80009E+02</wgt>
<wgt id='2607'>0.80058E+02</wgt>
<wgt id='2608'>0.80043E+02</wgt>
<wgt id='2609'>0.79817E+02</wgt>
<wgt id='2610'>0.79841E+02</wgt>
<wgt id='2611'>0.79903E+02</wgt>
<wgt id='2612'>0.79900E+02</wgt>
<wgt id='2613'>0.79948E+02</wgt>
<wgt id='2614'>0.79801E+02</wgt>
<wgt id='2615'>0.79785E+02</wgt>
<wgt id='2616'>0.80018E+02</wgt>
<wgt id='2617'>0.79711E+02</wgt>
<wgt id='2618'>0.80081E+02</wgt>
<wgt id='2619'>0.80004E+02</wgt>
<wgt id='2620'>0.79604E+02</wgt>
<wgt id='2621'>0.80050E+02</wgt>
<wgt id='2622'>0.80115E+02</wgt>
<wgt id='2623'>0.79848E+02</wgt>
<wgt id='2624'>0.79778E+02</wgt>
<wgt id='2625'>0.80185E+02</wgt>
<wgt id='2626'>0.80079E+02</wgt>
<wgt id='2627'>0.80050E+02</wgt>
<wgt id='2628'>0.79791E+02</wgt>
<wgt id='2629'>0.80108E+02</wgt>
<wgt id='2630'>0.80261E+02</wgt>
<wgt id='2631'>0.80026E+02</wgt>
<wgt id='2632'>0.79457E+02</wgt>
<wgt id='2633'>0.79875E+02</wgt>
<wgt id='2634'>0.79962E+02</wgt>
<wgt id='2635'>0.79573E+02</wgt>
<wgt id='2636'>0.79994E+02</wgt>
<wgt id='2637'>0.79792E+02</wgt>
<wgt id='2638'>0.79794E+02</wgt>
<wgt id='2639'>0.79907E+02</wgt>
<wgt id='2640'>0.79949E+02</wgt>
<wgt id='2641'>0.79697E+02</wgt>
<wgt id='2642'>0.79889E+02</wgt>
<wgt id='2643'>0.79869E+02</wgt>
<wgt id='2644'>0.79889E+02</wgt>
<wgt id='2645'>0.79796E+02</wgt>
<wgt id='2646'>0.79714E+02</wgt>
<wgt id='2647'>0.79946E+02</wgt>
<wgt id='2648'>0.79969E+02</wgt>
<wgt id='2649'>0.79990E+02</wgt>
<wgt id='2650'>0.79941E+02</wgt>
<wgt id='2651'>0.78370E+02</wgt>
<wgt id='2652'>0.81029E+02</wgt>
<wgt id='2700'>0.76938E+02</wgt>
<wgt id='2701'>0.78370E+02</wgt>
<wgt id='2702'>0.79116E+02</wgt>
<wgt id='2703'>0.80671E+02</wgt>
<wgt id='2704'>0.81029E+02</wgt>
<wgt id='2705'>0.82771E+02</wgt>
<wgt id='2800'>0.82954E+02</wgt>
<wgt id='4000'>0.85880E+02</wgt>
<wgt id='4001'>0.86065E+02</wgt>
<wgt id='4002'>0.85923E+02</wgt>
<wgt id='4003'>0.84183E+02</wgt>
<wgt id='4004'>0.88074E+02</wgt>
<wgt id='4005'>0.86732E+02</wgt>
<wgt id='4006'>0.85337E+02</wgt>
<wgt id='4007'>0.85855E+02</wgt>
<wgt id='4008'>0.85994E+02</wgt>
<wgt id='4009'>0.84964E+02</wgt>
<wgt id='4010'>0.86153E+02</wgt>
<wgt id='4011'>0.86700E+02</wgt>
<wgt id='4012'>0.84790E+02</wgt>
<wgt id='4013'>0.85963E+02</wgt>
<wgt id='4014'>0.86010E+02</wgt>
<wgt id='4015'>0.87199E+02</wgt>
<wgt id='4016'>0.86668E+02</wgt>
<wgt id='4017'>0.86103E+02</wgt>
<wgt id='4018'>0.85672E+02</wgt>
<wgt id='4019'>0.85284E+02</wgt>
<wgt id='4020'>0.87025E+02</wgt>
<wgt id='4021'>0.86337E+02</wgt>
<wgt id='4022'>0.85099E+02</wgt>
<wgt id='4023'>0.86466E+02</wgt>
<wgt id='4024'>0.86532E+02</wgt>
<wgt id='4025'>0.85544E+02</wgt>
<wgt id='4026'>0.86873E+02</wgt>
<wgt id='4027'>0.87432E+02</wgt>
<wgt id='4028'>0.84599E+02</wgt>
<wgt id='4029'>0.87689E+02</wgt>
<wgt id='4030'>0.85124E+02</wgt>
<wgt id='4031'>0.86210E+02</wgt>
<wgt id='4032'>0.87808E+02</wgt>
<wgt id='4033'>0.86885E+02</wgt>
<wgt id='4034'>0.85444E+02</wgt>
<wgt id='4035'>0.85574E+02</wgt>
<wgt id='4036'>0.86139E+02</wgt>
<wgt id='4037'>0.89654E+02</wgt>
<wgt id='4038'>0.82894E+02</wgt>
<wgt id='4039'>0.87708E+02</wgt>
<wgt id='4040'>0.84389E+02</wgt>
<wgt id='4041'>0.86554E+02</wgt>
<wgt id='4042'>0.85239E+02</wgt>
<wgt id='4043'>0.85853E+02</wgt>
<wgt id='4044'>0.85314E+02</wgt>
<wgt id='4045'>0.85227E+02</wgt>
<wgt id='4046'>0.86303E+02</wgt>
<wgt id='4047'>0.86888E+02</wgt>
<wgt id='4048'>0.86100E+02</wgt>
<wgt id='4049'>0.85851E+02</wgt>
<wgt id='4050'>0.86115E+02</wgt>
<wgt id='4051'>0.85209E+02</wgt>
<wgt id='4052'>0.86830E+02</wgt>
<wgt id='4053'>0.85824E+02</wgt>
<wgt id='4054'>0.85410E+02</wgt>
<wgt id='4055'>0.86494E+02</wgt>
<wgt id='4056'>0.85198E+02</wgt>
<wgt id='4057'>0.85174E+02</wgt>
<wgt id='4058'>0.86361E+02</wgt>
<wgt id='4100'>0.86105E+02</wgt>
<wgt id='4101'>0.85927E+02</wgt>
<wgt id='4102'>0.85942E+02</wgt>
<wgt id='4103'>0.86081E+02</wgt>
<wgt id='4200'>0.84021E+02</wgt>
<wgt id='4201'>0.83912E+02</wgt>
<wgt id='4202'>0.84301E+02</wgt>
<wgt id='4203'>0.83838E+02</wgt>
<wgt id='4204'>0.83981E+02</wgt>
<wgt id='4205'>0.84077E+02</wgt>
<wgt id='4206'>0.84141E+02</wgt>
<wgt id='4207'>0.84969E+02</wgt>
<wgt id='4208'>0.83508E+02</wgt>
<wgt id='4209'>0.83416E+02</wgt>
<wgt id='4210'>0.84417E+02</wgt>
<wgt id='4211'>0.84144E+02</wgt>
<wgt id='4212'>0.83948E+02</wgt>
<wgt id='4213'>0.83956E+02</wgt>
<wgt id='4214'>0.84128E+02</wgt>
<wgt id='4215'>0.84181E+02</wgt>
<wgt id='4216'>0.84306E+02</wgt>
<wgt id='4217'>0.84338E+02</wgt>
<wgt id='4218'>0.83722E+02</wgt>
<wgt id='4219'>0.84425E+02</wgt>
<wgt id='4220'>0.83760E+02</wgt>
<wgt id='4221'>0.84102E+02</wgt>
<wgt id='4222'>0.84407E+02</wgt>
<wgt id='4223'>0.82228E+02</wgt>
<wgt id='4224'>0.84167E+02</wgt>
<wgt id='4225'>0.83551E+02</wgt>
<wgt id='4226'>0.85122E+02</wgt>
<wgt id='4227'>0.84814E+02</wgt>
<wgt id='4228'>0.83354E+02</wgt>
<wgt id='4229'>0.82535E+02</wgt>
<wgt id='4230'>0.85444E+02</wgt>
<wgt id='4231'>0.84740E+02</wgt>
<wgt id='4232'>0.82921E+02</wgt>
<wgt id='4233'>0.84389E+02</wgt>
<wgt id='4234'>0.82914E+02</wgt>
<wgt id='4235'>0.85432E+02</wgt>
<wgt id='4236'>0.82578E+02</wgt>
<wgt id='4237'>0.86136E+02</wgt>
<wgt id='4238'>0.81095E+02</wgt>
<wgt id='4239'>0.83806E+02</wgt>
<wgt id='4240'>0.84575E+02</wgt>
<wgt id='4241'>0.84361E+02</wgt>
<wgt id='4242'>0.83670E+02</wgt>
<wgt id='4243'>0.84843E+02</wgt>
<wgt id='4244'>0.83193E+02</wgt>
<wgt id='4245'>0.84557E+02</wgt>
<wgt id='4246'>0.82886E+02</wgt>
<wgt id='4247'>0.82869E+02</wgt>
<wgt id='4248'>0.84739E+02</wgt>
<wgt id='4249'>0.84943E+02</wgt>
<wgt id='4250'>0.82918E+02</wgt>
<wgt id='4251'>0.86319E+02</wgt>
<wgt id='4252'>0.82580E+02</wgt>
<wgt id='4253'>0.85516E+02</wgt>
<wgt id='4254'>0.82192E+02</wgt>
<wgt id='4255'>0.86067E+02</wgt>
<wgt id='4256'>0.83169E+02</wgt>
<wgt id='4257'>0.82548E+02</wgt>
<wgt id='4258'>0.84450E+02</wgt>
<wgt id='4300'>0.84657E+02</wgt>
<wgt id='4301'>0.86201E+02</wgt>
<wgt id='5000'>0.83982E+02</wgt>
<wgt id='5001'>0.84025E+02</wgt>
<wgt id='5002'>0.83927E+02</wgt>
<wgt id='5003'>0.84002E+02</wgt>
<wgt id='5004'>0.83965E+02</wgt>
<wgt id='5005'>0.83987E+02</wgt>
<wgt id='5006'>0.83975E+02</wgt>
<wgt id='5007'>0.84085E+02</wgt>
<wgt id='5008'>0.83899E+02</wgt>
<wgt id='5009'>0.84074E+02</wgt>
<wgt id='5010'>0.83888E+02</wgt>
<wgt id='5011'>0.84271E+02</wgt>
<wgt id='5012'>0.83705E+02</wgt>
<wgt id='5013'>0.84099E+02</wgt>
<wgt id='5014'>0.83900E+02</wgt>
<wgt id='5015'>0.83571E+02</wgt>
<wgt id='5016'>0.83571E+02</wgt>
<wgt id='5017'>0.84297E+02</wgt>
<wgt id='5018'>0.83771E+02</wgt>
<wgt id='5019'>0.84288E+02</wgt>
<wgt id='5020'>0.83563E+02</wgt>
<wgt id='5021'>0.84076E+02</wgt>
<wgt id='5022'>0.83834E+02</wgt>
<wgt id='5023'>0.83938E+02</wgt>
<wgt id='5024'>0.84087E+02</wgt>
<wgt id='5025'>0.83814E+02</wgt>
<wgt id='5026'>0.84168E+02</wgt>
<wgt id='5027'>0.84057E+02</wgt>
<wgt id='5028'>0.83781E+02</wgt>
<wgt id='5029'>0.85250E+02</wgt>
<wgt id='5030'>0.83271E+02</wgt>
<wgt id='5031'>0.83233E+02</wgt>
<wgt id='5032'>0.86284E+02</wgt>
<wgt id='5033'>0.83859E+02</wgt>
<wgt id='5034'>0.84115E+02</wgt>
<wgt id='5035'>0.83999E+02</wgt>
<wgt id='5036'>0.83962E+02</wgt>
<wgt id='5037'>0.83608E+02</wgt>
<wgt id='5038'>0.84194E+02</wgt>
<wgt id='5039'>0.84161E+02</wgt>
<wgt id='5040'>0.83541E+02</wgt>
<wgt id='5041'>0.83390E+02</wgt>
<wgt id='5042'>0.84621E+02</wgt>
<wgt id='5043'>0.84206E+02</wgt>
<wgt id='5044'>0.83823E+02</wgt>
<wgt id='5045'>0.84659E+02</wgt>
<wgt id='5046'>0.82679E+02</wgt>
<wgt id='5047'>0.84133E+02</wgt>
<wgt id='5048'>0.83325E+02</wgt>
<wgt id='5049'>0.83816E+02</wgt>
<wgt id='5050'>0.84364E+02</wgt>
<wgt id='5051'>0.84345E+02</wgt>
<wgt id='5052'>0.83737E+02</wgt>
<wgt id='5053'>0.84429E+02</wgt>
<wgt id='5054'>0.84103E+02</wgt>
<wgt id='5055'>0.84021E+02</wgt>
<wgt id='5056'>0.84103E+02</wgt>
<wgt id='5057'>0.83506E+02</wgt>
<wgt id='5058'>0.84317E+02</wgt>
<wgt id='5059'>0.83721E+02</wgt>
<wgt id='5060'>0.84131E+02</wgt>
<wgt id='5061'>0.84159E+02</wgt>
<wgt id='5062'>0.84401E+02</wgt>
<wgt id='5063'>0.84181E+02</wgt>
<wgt id='5064'>0.84256E+02</wgt>
<wgt id='5100'>0.83982E+02</wgt>
<wgt id='5101'>0.83977E+02</wgt>
<wgt id='6000'>0.83696E+02</wgt>
<wgt id='6001'>0.83185E+02</wgt>
<wgt id='6002'>0.82501E+02</wgt>
<wgt id='6003'>0.83401E+02</wgt>
<wgt id='6004'>0.84435E+02</wgt>
<wgt id='6005'>0.83047E+02</wgt>
<wgt id='6006'>0.83719E+02</wgt>
<wgt id='6007'>0.82815E+02</wgt>
<wgt id='6008'>0.84131E+02</wgt>
<wgt id='6009'>0.83567E+02</wgt>
<wgt id='6010'>0.84454E+02</wgt>
<wgt id='6011'>0.83636E+02</wgt>
<wgt id='6012'>0.83874E+02</wgt>
<wgt id='6013'>0.83247E+02</wgt>
<wgt id='6014'>0.83140E+02</wgt>
<wgt id='6015'>0.82811E+02</wgt>
<wgt id='6016'>0.84336E+02</wgt>
<wgt id='6017'>0.83203E+02</wgt>
<wgt id='6018'>0.82806E+02</wgt>
<wgt id='6019'>0.84072E+02</wgt>
<wgt id='6020'>0.83889E+02</wgt>
<wgt id='6021'>0.83622E+02</wgt>
<wgt id='6022'>0.84198E+02</wgt>
<wgt id='6023'>0.83638E+02</wgt>
<wgt id='6024'>0.83898E+02</wgt>
<wgt id='6025'>0.84281E+02</wgt>
<wgt id='6026'>0.83566E+02</wgt>
<wgt id='6027'>0.83887E+02</wgt>
<wgt id='6028'>0.82859E+02</wgt>
<wgt id='6029'>0.83310E+02</wgt>
<wgt id='6030'>0.83032E+02</wgt>
<wgt id='6031'>0.83422E+02</wgt>
<wgt id='6032'>0.83662E+02</wgt>
<wgt id='6033'>0.83644E+02</wgt>
<wgt id='6034'>0.84191E+02</wgt>
<wgt id='6035'>0.83771E+02</wgt>
<wgt id='6036'>0.84569E+02</wgt>
<wgt id='6037'>0.83653E+02</wgt>
<wgt id='6038'>0.83477E+02</wgt>
<wgt id='6039'>0.84114E+02</wgt>
<wgt id='6040'>0.83817E+02</wgt>
<wgt id='6041'>0.82313E+02</wgt>
<wgt id='6042'>0.85149E+02</wgt>
<wgt id='7000'>0.79163E+02</wgt>
<wgt id='7001'>0.78690E+02</wgt>
<wgt id='7002'>0.78851E+02</wgt>
<wgt id='7003'>0.78767E+02</wgt>
<wgt id='7004'>0.78774E+02</wgt>
<wgt id='7005'>0.78819E+02</wgt>
<wgt id='7006'>0.78722E+02</wgt>
<wgt id='7007'>0.79206E+02</wgt>
<wgt id='7008'>0.78346E+02</wgt>
<wgt id='7009'>0.78388E+02</wgt>
<wgt id='7010'>0.79167E+02</wgt>
<wgt id='7011'>0.79054E+02</wgt>
<wgt id='7012'>0.78497E+02</wgt>
<wgt id='7013'>0.78769E+02</wgt>
<wgt id='7014'>0.78769E+02</wgt>
<wgt id='7015'>0.79038E+02</wgt>
<wgt id='7016'>0.78368E+02</wgt>
<wgt id='7017'>0.78502E+02</wgt>
<wgt id='7018'>0.79052E+02</wgt>
<wgt id='7019'>0.79408E+02</wgt>
<wgt id='7020'>0.78159E+02</wgt>
<wgt id='7021'>0.80528E+02</wgt>
<wgt id='7022'>0.77119E+02</wgt>
<wgt id='7023'>0.77271E+02</wgt>
<wgt id='7024'>0.80291E+02</wgt>
<wgt id='7025'>0.76891E+02</wgt>
<wgt id='7026'>0.80606E+02</wgt>
<wgt id='7027'>0.77935E+02</wgt>
<wgt id='7028'>0.79699E+02</wgt>
<wgt id='8000'>0.80649E+02</wgt>
<wgt id='8001'>0.80640E+02</wgt>
<wgt id='8002'>0.80673E+02</wgt>
<wgt id='8003'>0.80648E+02</wgt>
<wgt id='8004'>0.80646E+02</wgt>
<wgt id='8005'>0.80492E+02</wgt>
<wgt id='8006'>0.80759E+02</wgt>
<wgt id='8007'>0.80833E+02</wgt>
<wgt id='8008'>0.80821E+02</wgt>
<wgt id='8009'>0.80993E+02</wgt>
<wgt id='8010'>0.80546E+02</wgt>
<wgt id='8011'>0.80697E+02</wgt>
<wgt id='8012'>0.80351E+02</wgt>
<wgt id='8013'>0.80470E+02</wgt>
<wgt id='8014'>0.80877E+02</wgt>
<wgt id='8015'>0.80585E+02</wgt>
<wgt id='8016'>0.80813E+02</wgt>
<wgt id='8017'>0.80824E+02</wgt>
<wgt id='8018'>0.81041E+02</wgt>
<wgt id='8019'>0.80328E+02</wgt>
<wgt id='8020'>0.81206E+02</wgt>
<wgt id='8021'>0.80415E+02</wgt>
<wgt id='8022'>0.81660E+02</wgt>
<wgt id='8023'>0.80187E+02</wgt>
<wgt id='8024'>0.79793E+02</wgt>
<wgt id='8025'>0.79906E+02</wgt>
<wgt id='8026'>0.80568E+02</wgt>
<wgt id='8027'>0.80888E+02</wgt>
<wgt id='8028'>0.80652E+02</wgt>
<wgt id='8029'>0.83554E+02</wgt>
<wgt id='3000'>0.81104E+02</wgt>
<wgt id='3001'>0.84859E+02</wgt>
<wgt id='3002'>0.79138E+02</wgt>
<wgt id='3003'>0.78199E+02</wgt>
<wgt id='3004'>0.81506E+02</wgt>
<wgt id='3005'>0.81450E+02</wgt>
<wgt id='3006'>0.82187E+02</wgt>
<wgt id='3007'>0.78191E+02</wgt>
<wgt id='3008'>0.77510E+02</wgt>
<wgt id='3009'>0.79632E+02</wgt>
<wgt id='3010'>0.87706E+02</wgt>
<wgt id='3011'>0.83936E+02</wgt>
<wgt id='3012'>0.79903E+02</wgt>
<wgt id='3013'>0.82767E+02</wgt>
<wgt id='3014'>0.80700E+02</wgt>
<wgt id='3015'>0.81145E+02</wgt>
<wgt id='3016'>0.81248E+02</wgt>
<wgt id='3017'>0.80775E+02</wgt>
<wgt id='3018'>0.78578E+02</wgt>
<wgt id='3019'>0.79817E+02</wgt>
<wgt id='3020'>0.80939E+02</wgt>
<wgt id='3021'>0.81164E+02</wgt>
<wgt id='3022'>0.79320E+02</wgt>
<wgt id='3023'>0.79022E+02</wgt>
<wgt id='3024'>0.80784E+02</wgt>
<wgt id='3025'>0.78195E+02</wgt>
<wgt id='3026'>0.81144E+02</wgt>
<wgt id='3027'>0.83904E+02</wgt>
<wgt id='3028'>0.77224E+02</wgt>
<wgt id='3029'>0.81682E+02</wgt>
<wgt id='3030'>0.80712E+02</wgt>
<wgt id='3031'>0.79262E+02</wgt>
<wgt id='3032'>0.84381E+02</wgt>
<wgt id='3033'>0.79050E+02</wgt>
<wgt id='3034'>0.80469E+02</wgt>
<wgt id='3035'>0.84036E+02</wgt>
<wgt id='3036'>0.82285E+02</wgt>
<wgt id='3037'>0.81550E+02</wgt>
<wgt id='3038'>0.81416E+02</wgt>
<wgt id='3039'>0.82014E+02</wgt>
<wgt id='3040'>0.79252E+02</wgt>
<wgt id='3041'>0.80307E+02</wgt>
<wgt id='3042'>0.79606E+02</wgt>
<wgt id='3043'>0.81989E+02</wgt>
<wgt id='3044'>0.81508E+02</wgt>
<wgt id='3045'>0.80424E+02</wgt>
<wgt id='3046'>0.81319E+02</wgt>
<wgt id='3047'>0.82784E+02</wgt>
<wgt id='3048'>0.82373E+02</wgt>
<wgt id='3049'>0.84430E+02</wgt>
<wgt id='3050'>0.84156E+02</wgt>
<wgt id='3051'>0.81929E+02</wgt>
<wgt id='3052'>0.79490E+02</wgt>
<wgt id='3053'>0.82796E+02</wgt>
<wgt id='3054'>0.79732E+02</wgt>
<wgt id='3055'>0.80195E+02</wgt>
<wgt id='3056'>0.80143E+02</wgt>
<wgt id='3057'>0.80691E+02</wgt>
<wgt id='3058'>0.82814E+02</wgt>
<wgt id='3059'>0.77938E+02</wgt>
<wgt id='3060'>0.81775E+02</wgt>
<wgt id='3061'>0.83059E+02</wgt>
<wgt id='3062'>0.80651E+02</wgt>
<wgt id='3063'>0.82887E+02</wgt>
<wgt id='3064'>0.82181E+02</wgt>
<wgt id='3065'>0.79674E+02</wgt>
<wgt id='3066'>0.79090E+02</wgt>
<wgt id='3067'>0.78548E+02</wgt>
<wgt id='3068'>0.80424E+02</wgt>
<wgt id='3069'>0.81048E+02</wgt>
<wgt id='3070'>0.83262E+02</wgt>
<wgt id='3071'>0.82089E+02</wgt>
<wgt id='3072'>0.83111E+02</wgt>
<wgt id='3073'>0.79926E+02</wgt>
<wgt id='3074'>0.79923E+02</wgt>
<wgt id='3075'>0.80989E+02</wgt>
<wgt id='3076'>0.83119E+02</wgt>
<wgt id='3077'>0.81807E+02</wgt>
<wgt id='3078'>0.82010E+02</wgt>
<wgt id='3079'>0.82100E+02</wgt>
<wgt id='3080'>0.84756E+02</wgt>
<wgt id='3081'>0.81609E+02</wgt>
<wgt id='3082'>0.81248E+02</wgt>
<wgt id='3083'>0.81059E+02</wgt>
<wgt id='3084'>0.79011E+02</wgt>
<wgt id='3085'>0.81339E+02</wgt>
<wgt id='3086'>0.82799E+02</wgt>
<wgt id='3087'>0.79744E+02</wgt>
<wgt id='3088'>0.81220E+02</wgt>
<wgt id='3089'>0.79225E+02</wgt>
<wgt id='3090'>0.78482E+02</wgt>
<wgt id='3091'>0.77775E+02</wgt>
<wgt id='3092'>0.83580E+02</wgt>
<wgt id='3093'>0.80982E+02</wgt>
<wgt id='3094'>0.81326E+02</wgt>
<wgt id='3095'>0.81494E+02</wgt>
<wgt id='3096'>0.80147E+02</wgt>
<wgt id='3097'>0.86238E+02</wgt>
<wgt id='3098'>0.80377E+02</wgt>
<wgt id='3099'>0.78448E+02</wgt>
<wgt id='3100'>0.79634E+02</wgt>
<wgt id='3200'>0.80137E+02</wgt>
<wgt id='3201'>0.79286E+02</wgt>
<wgt id='3202'>0.78955E+02</wgt>
<wgt id='3203'>0.81216E+02</wgt>
<wgt id='3204'>0.80846E+02</wgt>
<wgt id='3205'>0.80543E+02</wgt>
<wgt id='3206'>0.80692E+02</wgt>
<wgt id='3207'>0.80060E+02</wgt>
<wgt id='3208'>0.80345E+02</wgt>
<wgt id='3209'>0.80219E+02</wgt>
<wgt id='3210'>0.79982E+02</wgt>
<wgt id='3211'>0.79419E+02</wgt>
<wgt id='3212'>0.80066E+02</wgt>
<wgt id='3213'>0.81033E+02</wgt>
<wgt id='3214'>0.79295E+02</wgt>
<wgt id='3215'>0.79414E+02</wgt>
<wgt id='3216'>0.81152E+02</wgt>
<wgt id='3217'>0.80580E+02</wgt>
<wgt id='3218'>0.81152E+02</wgt>
<wgt id='3219'>0.79111E+02</wgt>
<wgt id='3220'>0.79312E+02</wgt>
<wgt id='3221'>0.79996E+02</wgt>
<wgt id='3222'>0.80643E+02</wgt>
<wgt id='3223'>0.79540E+02</wgt>
<wgt id='3224'>0.79818E+02</wgt>
<wgt id='3225'>0.80598E+02</wgt>
<wgt id='3226'>0.80194E+02</wgt>
<wgt id='3227'>0.79796E+02</wgt>
<wgt id='3228'>0.80484E+02</wgt>
<wgt id='3229'>0.81306E+02</wgt>
<wgt id='3230'>0.80741E+02</wgt>
<wgt id='3231'>0.80265E+02</wgt>
<wgt id='3232'>0.80417E+02</wgt>
<wgt id='3233'>0.79553E+02</wgt>
<wgt id='3234'>0.78257E+02</wgt>
<wgt id='3235'>0.79619E+02</wgt>
<wgt id='3236'>0.81342E+02</wgt>
<wgt id='3237'>0.80279E+02</wgt>
<wgt id='3238'>0.81392E+02</wgt>
<wgt id='3239'>0.78786E+02</wgt>
<wgt id='3240'>0.78014E+02</wgt>
<wgt id='3241'>0.80464E+02</wgt>
<wgt id='3242'>0.80980E+02</wgt>
<wgt id='3243'>0.81978E+02</wgt>
<wgt id='3244'>0.81548E+02</wgt>
<wgt id='3245'>0.81327E+02</wgt>
<wgt id='3246'>0.79056E+02</wgt>
<wgt id='3247'>0.77500E+02</wgt>
<wgt id='3248'>0.79718E+02</wgt>
<wgt id='3249'>0.79890E+02</wgt>
<wgt id='3250'>0.78978E+02</wgt>
<wgt id='3251'>0.79458E+02</wgt>
<wgt id='3252'>0.81724E+02</wgt>
<wgt id='3253'>0.82327E+02</wgt>
<wgt id='3254'>0.79968E+02</wgt>
<wgt id='3255'>0.78272E+02</wgt>
<wgt id='3256'>0.79114E+02</wgt>
<wgt id='3257'>0.79153E+02</wgt>
<wgt id='3258'>0.78773E+02</wgt>
<wgt id='3259'>0.78758E+02</wgt>
<wgt id='3260'>0.80892E+02</wgt>
<wgt id='3261'>0.78942E+02</wgt>
<wgt id='3262'>0.81664E+02</wgt>
<wgt id='3263'>0.79650E+02</wgt>
<wgt id='3264'>0.81717E+02</wgt>
<wgt id='3265'>0.81625E+02</wgt>
<wgt id='3266'>0.80279E+02</wgt>
<wgt id='3267'>0.80576E+02</wgt>
<wgt id='3268'>0.78028E+02</wgt>
<wgt id='3269'>0.79170E+02</wgt>
<wgt id='3270'>0.82383E+02</wgt>
<wgt id='3271'>0.79485E+02</wgt>
<wgt id='3272'>0.80106E+02</wgt>
<wgt id='3273'>0.80298E+02</wgt>
<wgt id='3274'>0.80982E+02</wgt>
<wgt id='3275'>0.81372E+02</wgt>
<wgt id='3276'>0.79063E+02</wgt>
<wgt id='3277'>0.80428E+02</wgt>
<wgt id='3278'>0.81281E+02</wgt>
<wgt id='3279'>0.80485E+02</wgt>
<wgt id='3280'>0.79530E+02</wgt>
<wgt id='3281'>0.81298E+02</wgt>
<wgt id='3282'>0.79552E+02</wgt>
<wgt id='3283'>0.81389E+02</wgt>
<wgt id='3284'>0.78229E+02</wgt>
<wgt id='3285'>0.80617E+02</wgt>
<wgt id='3286'>0.79003E+02</wgt>
<wgt id='3287'>0.82617E+02</wgt>
<wgt id='3288'>0.78505E+02</wgt>
<wgt id='3289'>0.80999E+02</wgt>
<wgt id='3290'>0.78969E+02</wgt>
<wgt id='3291'>0.80474E+02</wgt>
<wgt id='3292'>0.79891E+02</wgt>
<wgt id='3293'>0.79884E+02</wgt>
<wgt id='3294'>0.80765E+02</wgt>
<wgt id='3295'>0.79511E+02</wgt>
<wgt id='3296'>0.80438E+02</wgt>
<wgt id='3297'>0.81071E+02</wgt>
<wgt id='3298'>0.78157E+02</wgt>
<wgt id='3299'>0.80727E+02</wgt>
<wgt id='3300'>0.80802E+02</wgt>
<wgt id='3301'>0.78370E+02</wgt>
<wgt id='3302'>0.81029E+02</wgt>
<wgt id='3400'>0.79168E+02</wgt>
<wgt id='3401'>0.80432E+02</wgt>
<wgt id='3402'>0.76887E+02</wgt>
<wgt id='3403'>0.80417E+02</wgt>
<wgt id='3404'>0.80622E+02</wgt>
<wgt id='3405'>0.80498E+02</wgt>
<wgt id='3406'>0.79662E+02</wgt>
<wgt id='3407'>0.78464E+02</wgt>
<wgt id='3408'>0.79227E+02</wgt>
<wgt id='3409'>0.78053E+02</wgt>
<wgt id='3410'>0.79840E+02</wgt>
<wgt id='3411'>0.80211E+02</wgt>
<wgt id='3412'>0.79472E+02</wgt>
<wgt id='3413'>0.78834E+02</wgt>
<wgt id='3414'>0.79488E+02</wgt>
<wgt id='3415'>0.79635E+02</wgt>
<wgt id='3416'>0.79006E+02</wgt>
<wgt id='3417'>0.80109E+02</wgt>
<wgt id='3418'>0.78741E+02</wgt>
<wgt id='3419'>0.79010E+02</wgt>
<wgt id='3420'>0.78690E+02</wgt>
<wgt id='3421'>0.78300E+02</wgt>
<wgt id='3422'>0.78381E+02</wgt>
<wgt id='3423'>0.82252E+02</wgt>
<wgt id='3424'>0.79208E+02</wgt>
<wgt id='3425'>0.78031E+02</wgt>
<wgt id='3426'>0.78382E+02</wgt>
<wgt id='3427'>0.78254E+02</wgt>
<wgt id='3428'>0.78701E+02</wgt>
<wgt id='3429'>0.77543E+02</wgt>
<wgt id='3430'>0.79042E+02</wgt>
<wgt id='3431'>0.79962E+02</wgt>
<wgt id='3432'>0.79868E+02</wgt>
<wgt id='3433'>0.79341E+02</wgt>
<wgt id='3434'>0.81345E+02</wgt>
<wgt id='3435'>0.80567E+02</wgt>
<wgt id='3436'>0.79440E+02</wgt>
<wgt id='3437'>0.81212E+02</wgt>
<wgt id='3438'>0.78558E+02</wgt>
<wgt id='3439'>0.77524E+02</wgt>
<wgt id='3440'>0.79568E+02</wgt>
<wgt id='3441'>0.79932E+02</wgt>
<wgt id='3442'>0.79827E+02</wgt>
<wgt id='3443'>0.80787E+02</wgt>
<wgt id='3444'>0.78705E+02</wgt>
<wgt id='3445'>0.78274E+02</wgt>
<wgt id='3446'>0.79932E+02</wgt>
<wgt id='3447'>0.78755E+02</wgt>
<wgt id='3448'>0.80137E+02</wgt>
<wgt id='3449'>0.78901E+02</wgt>
<wgt id='3450'>0.77921E+02</wgt>
<wgt id='3451'>0.79722E+02</wgt>
<wgt id='3452'>0.78181E+02</wgt>
<wgt id='3453'>0.77259E+02</wgt>
<wgt id='3454'>0.78897E+02</wgt>
<wgt id='3455'>0.79725E+02</wgt>
<wgt id='3456'>0.79657E+02</wgt>
<wgt id='3457'>0.78425E+02</wgt>
<wgt id='3458'>0.77947E+02</wgt>
<wgt id='3459'>0.79827E+02</wgt>
<wgt id='3460'>0.79043E+02</wgt>
<wgt id='3461'>0.78831E+02</wgt>
<wgt id='3462'>0.78962E+02</wgt>
<wgt id='3463'>0.78517E+02</wgt>
<wgt id='3464'>0.78879E+02</wgt>
<wgt id='3465'>0.78513E+02</wgt>
<wgt id='3466'>0.80637E+02</wgt>
<wgt id='3467'>0.78977E+02</wgt>
<wgt id='3468'>0.78183E+02</wgt>
<wgt id='3469'>0.77055E+02</wgt>
<wgt id='3470'>0.78904E+02</wgt>
<wgt id='3471'>0.77823E+02</wgt>
<wgt id='3472'>0.77272E+02</wgt>
<wgt id='3473'>0.81189E+02</wgt>
<wgt id='3474'>0.78468E+02</wgt>
<wgt id='3475'>0.79055E+02</wgt>
<wgt id='3476'>0.79332E+02</wgt>
<wgt id='3477'>0.77996E+02</wgt>
<wgt id='3478'>0.79683E+02</wgt>
<wgt id='3479'>0.78440E+02</wgt>
<wgt id='3480'>0.79700E+02</wgt>
<wgt id='3481'>0.80666E+02</wgt>
<wgt id='3482'>0.79288E+02</wgt>
<wgt id='3483'>0.79009E+02</wgt>
<wgt id='3484'>0.78599E+02</wgt>
<wgt id='3485'>0.78221E+02</wgt>
<wgt id='3486'>0.77234E+02</wgt>
<wgt id='3487'>0.77720E+02</wgt>
<wgt id='3488'>0.79040E+02</wgt>
<wgt id='3489'>0.78116E+02</wgt>
<wgt id='3490'>0.79993E+02</wgt>
<wgt id='3491'>0.81228E+02</wgt>
<wgt id='3492'>0.78801E+02</wgt>
<wgt id='3493'>0.81206E+02</wgt>
<wgt id='3494'>0.77462E+02</wgt>
<wgt id='3495'>0.81139E+02</wgt>
<wgt id='3496'>0.77447E+02</wgt>
<wgt id='3497'>0.78686E+02</wgt>
<wgt id='3498'>0.80489E+02</wgt>
<wgt id='3499'>0.79769E+02</wgt>
<wgt id='3500'>0.81554E+02</wgt>
</rwgt>
</event>
<event>
     13 322200  8.11039E+01  2.51075E+01 -1.00000E+00  1.55985E-01
      21    -1     0     0   502   503  0.000000000E+00  0.000000000E+00  1.680407486E+02  1.680407486E+02  0.000000000E+00  0.00000E+00  9.000E+00
      21    -1     0     0   503   504  0.000000000E+00  0.000000000E+00 -3.627881750E+02  3.627881750E+02  0.000000000E+00  0.00000E+00  9.000E+00
       6     2     1     2   502     0 -2.754872403E+01  1.615863234E+02 -9.095243742E+01  2.545760653E+02  1.722427212E+02  0.00000E+00  9.000E+00
      -6     2     1     2     0   505  4.406776989E+01 -1.426785111E+02 -7.958366673E+01  2.413734608E+02  1.721292006E+02  0.00000E+00  9.000E+00
      21     1     1     2   505   504 -1.651904586E+01 -1.890781235E+01 -2.421132224E+01  3.487939748E+01  5.840038640E-07  0.00000E+00  9.000E+00
      24     2     3     3     0     0  1.871456966E+01  1.686639929E+02 -8.957683962E+01  2.074816748E+02  7.891044009E+01  0.00000E+00  9.000E+00
       5     1     3     3   502     0 -4.626329368E+01 -7.077669468E+00 -1.375597798E+00  4.709439050E+01  5.060000000E+00  0.00000E+00 -1.000E+00
     -24     2     4     4     0     0  3.831035920E+01 -3.554407633E+01 -9.281104537E+01  1.331537675E+02  7.990601141E+01  0.00000E+00  9.000E+00
      -5     1     4     4     0   505  5.757410690E+00 -1.071344347E+02  1.322737865E+01  1.082196933E+02  5.060000000E+00  0.00000E+00  1.000E+00
     -11     1     6     6     0     0 -2.658684871E+01  8.395617718E+01 -6.145913186E+01  1.073905261E+02  5.100000000E-04  0.00000E+00  1.000E+00
      12     1     6     6     0     0  4.530141837E+01  8.470781569E+01 -2.811770776E+01  1.000911486E+02  0.000000000E+00  0.00000E+00 -1.000E+00
      11     1     8     8     0     0 -2.200020162E+00  2.345348006E+01 -2.811357706E+01  3.667804563E+01  5.100000000E-04  0.00000E+00 -1.000E+00
     -12     1     8     8     0     0  4.051037936E+01 -5.899755639E+01 -6.469746832E+01  9.647572183E+01  0.000000000E+00  0.00000E+00  1.000E+00
#rwgt            1           1   423.23258116044053               10       40078           0
<rwgt>
<wgt id='1001'>0.81104E+02</wgt>
<wgt id='1002'>0.69470E+02</wgt>
<wgt id='1003'>0.98344E+02</wgt>
<wgt id='1004'>0.91475E+02</wgt>
<wgt id='1005'>0.80945E+02</wgt>
<wgt id='1006'>0.10636E+03</wgt>
<wgt id='1007'>0.58071E+02</wgt>
<wgt id='1008'>0.45278E+02</wgt>
<wgt id='1009'>0.78270E+02</wgt>
<wgt id='2000'>0.81104E+02</wgt>
<wgt id='2001'>0.81228E+02</wgt>
<wgt id='2002'>0.80804E+02</wgt>
<wgt id='2003'>0.81093E+02</wgt>
<wgt id='2004'>0.81247E+02</wgt>
<wgt id='2005'>0.81251E+02</wgt>
<wgt id='2006'>0.81384E+02</wgt>
<wgt id='2007'>0.81187E+02</wgt>
<wgt id='2008'>0.81477E+02</wgt>
<wgt id='2009'>0.81002E+02</wgt>
<wgt id='2010'>0.81167E+02</wgt>
<wgt id='2011'>0.80869E+02</wgt>
<wgt id='2012'>0.81134E+02</wgt>
<wgt id='2013'>0.81388E+02</wgt>
<wgt id='2014'>0.81570E+02</wgt>
<wgt id='2015'>0.81381E+02</wgt>
<wgt id='2016'>0.81228E+02</wgt>
<wgt id='2017'>0.81249E+02</wgt>
<wgt id='2018'>0.80844E+02</wgt>
<wgt id='2019'>0.81381E+02</wgt>
<wgt id='2020'>0.80934E+02</wgt>
<wgt id='2021'>0.80849E+02</wgt>
<wgt id='2022'>0.80806E+02</wgt>
<wgt id='2023'>0.81121E+02</wgt>
<wgt id='2024'>0.80977E+02</wgt>
<wgt id='2025'>0.81155E+02</wgt>
<wgt id='2026'>0.81041E+02</wgt>
<wgt id='2027'>0.80546E+02</wgt>
<wgt id='2028'>0.81456E+02</wgt>
<wgt id='2029'>0.80582E+02</wgt>
<wgt id='2030'>0.80918E+02</wgt>
<wgt id='2031'>0.80769E+02</wgt>
<wgt id='2032'>0.81177E+02</wgt>
<wgt id='2033'>0.80938E+02</wgt>
<wgt id='2034'>0.81044E+02</wgt>
<wgt id='2035'>0.81060E+02</wgt>
<wgt id='2036'>0.81349E+02</wgt>
<wgt id='2037'>0.81047E+02</wgt>
<wgt id='2038'>0.81168E+02</wgt>
<wgt id='2039'>0.81174E+02</wgt>
<wgt id='2040'>0.81024E+02</wgt>
<wgt id='2041'>0.81172E+02</wgt>
<wgt id='2042'>0.81113E+02</wgt>
<wgt id='2043'>0.81052E+02</wgt>
<wgt id='2044'>0.81170E+02</wgt>
<wgt id='2045'>0.81085E+02</wgt>
<wgt id='2046'>0.81114E+02</wgt>
<wgt id='2047'>0.81081E+02</wgt>
<wgt id='2048'>0.81040E+02</wgt>
<wgt id='2049'>0.81054E+02</wgt>
<wgt id='2050'>0.81065E+02</wgt>
<wgt id='2051'>0.81121E+02</wgt>
<wgt id='2052'>0.81157E+02</wgt>
<wgt id='2053'>0.81077E+02</wgt>
<wgt id='2054'>0.81124E+02</wgt>
<wgt id='2055'>0.81126E+02</wgt>
<wgt id='2056'>0.81103E+02</wgt>
<wgt id='2057'>0.81156E+02</wgt>
<wgt id='2058'>0.81119E+02</wgt>
<wgt id='2059'>0.81157E+02</wgt>
<wgt id='2060'>0.81110E+02</wgt>
<wgt id='2061'>0.81096E+02</wgt>
<wgt id='2062'>0.81157E+02</wgt>
<wgt id='2063'>0.81172E+02</wgt>
<wgt id='2064'>0.81085E+02</wgt>
<wgt id='2065'>0.81200E+02</wgt>
<wgt id='2066'>0.81135E+02</wgt>
<wgt id='2067'>0.81148E+02</wgt>
<wgt id='2068'>0.81122E+02</wgt>
<wgt id='2069'>0.81133E+02</wgt>
<wgt id='2070'>0.81139E+02</wgt>
<wgt id='2071'>0.81077E+02</wgt>
<wgt id='2072'>0.81076E+02</wgt>
<wgt id='2073'>0.81134E+02</wgt>
<wgt id='2074'>0.81080E+02</wgt>
<wgt id='2075'>0.81089E+02</wgt>
<wgt id='2076'>0.81116E+02</wgt>
<wgt id='2077'>0.81173E+02</wgt>
<wgt id='2078'>0.81114E+02</wgt>
<wgt id='2079'>0.81081E+02</wgt>
<wgt id='2080'>0.81097E+02</wgt>
<wgt id='2081'>0.81068E+02</wgt>
<wgt id='2082'>0.81082E+02</wgt>
<wgt id='2083'>0.81146E+02</wgt>
<wgt id='2084'>0.81115E+02</wgt>
<wgt id='2085'>0.81115E+02</wgt>
<wgt id='2086'>0.81061E+02</wgt>
<wgt id='2087'>0.81105E+02</wgt>
<wgt id='2088'>0.81063E+02</wgt>
<wgt id='2089'>0.81087E+02</wgt>
<wgt id='2090'>0.81125E+02</wgt>
<wgt id='2091'>0.81119E+02</wgt>
<wgt id='2092'>0.81121E+02</wgt>
<wgt id='2093'>0.81058E+02</wgt>
<wgt id='2094'>0.81114E+02</wgt>
<wgt id='2095'>0.81102E+02</wgt>
<wgt id='2096'>0.81081E+02</wgt>
<wgt id='2097'>0.81116E+02</wgt>
<wgt id='2098'>0.81120E+02</wgt>
<wgt id='2099'>0.81120E+02</wgt>
<wgt id='2100'>0.81104E+02</wgt>
<wgt id='2101'>0.80505E+02</wgt>
<wgt id='2102'>0.81902E+02</wgt>
<wgt id='2200'>0.81275E+02</wgt>
<wgt id='2201'>0.78432E+02</wgt>
<wgt id='2202'>0.79003E+02</wgt>
<wgt id='2203'>0.79753E+02</wgt>
<wgt id='2204'>0.80425E+02</wgt>
<wgt id='2205'>0.81129E+02</wgt>
<wgt id='2206'>0.81601E+02</wgt>
<wgt id='2207'>0.81925E+02</wgt>
<wgt id='2208'>0.82191E+02</wgt>
<wgt id='2300'>0.83368E+02</wgt>
<wgt id='2301'>0.83424E+02</wgt>
<wgt id='2302'>0.83326E+02</wgt>
<wgt id='2303'>0.83391E+02</wgt>
<wgt id='2304'>0.83540E+02</wgt>
<wgt id='2305'>0.83517E+02</wgt>
<wgt id='2306'>0.83314E+02</wgt>
<wgt id='2307'>0.83613E+02</wgt>
<wgt id='2308'>0.83394E+02</wgt>
<wgt id='2309'>0.83680E+02</wgt>
<wgt id='2310'>0.83281E+02</wgt>
<wgt id='2311'>0.83142E+02</wgt>
<wgt id='2312'>0.83397E+02</wgt>
<wgt id='2313'>0.83543E+02</wgt>
<wgt id='2314'>0.83437E+02</wgt>
<wgt id='2315'>0.83154E+02</wgt>
<wgt id='2316'>0.83385E+02</wgt>
<wgt id='2317'>0.83416E+02</wgt>
<wgt id='2318'>0.83617E+02</wgt>
<wgt id='2319'>0.83279E+02</wgt>
<wgt id='2320'>0.83144E+02</wgt>
<wgt id='2321'>0.83099E+02</wgt>
<wgt id='2322'>0.83375E+02</wgt>
<wgt id='2323'>0.83166E+02</wgt>
<wgt id='2324'>0.82978E+02</wgt>
<wgt id='2325'>0.83437E+02</wgt>
<wgt id='2326'>0.83618E+02</wgt>
<wgt id='2327'>0.83397E+02</wgt>
<wgt id='2328'>0.82862E+02</wgt>
<wgt id='2329'>0.82977E+02</wgt>
<wgt id='2330'>0.83808E+02</wgt>
<wgt id='2331'>0.83625E+02</wgt>
<wgt id='2332'>0.83593E+02</wgt>
<wgt id='2333'>0.83703E+02</wgt>
<wgt id='2334'>0.83479E+02</wgt>
<wgt id='2335'>0.83858E+02</wgt>
<wgt id='2336'>0.83472E+02</wgt>
<wgt id='2337'>0.83310E+02</wgt>
<wgt id='2338'>0.83434E+02</wgt>
<wgt id='2339'>0.83335E+02</wgt>
<wgt id='2340'>0.83290E+02</wgt>
<wgt id='2341'>0.83415E+02</wgt>
<wgt id='2342'>0.83131E+02</wgt>
<wgt id='2343'>0.83197E+02</wgt>
<wgt id='2344'>0.83399E+02</wgt>
<wgt id='2345'>0.83555E+02</wgt>
<wgt id='2346'>0.83279E+02</wgt>
<wgt id='2347'>0.83281E+02</wgt>
<wgt id='2348'>0.83509E+02</wgt>
<wgt id='2349'>0.83333E+02</wgt>
<wgt id='2350'>0.83599E+02</wgt>
<wgt id='2351'>0.83362E+02</wgt>
<wgt id='2352'>0.83367E+02</wgt>
<wgt id='2353'>0.83320E+02</wgt>
<wgt id='2354'>0.83293E+02</wgt>
<wgt id='2355'>0.83237E+02</wgt>
<wgt id='2356'>0.83348E+02</wgt>
<wgt id='2357'>0.83208E+02</wgt>
<wgt id='2358'>0.83327E+02</wgt>
<wgt id='2359'>0.83351E+02</wgt>
<wgt id='2360'>0.83420E+02</wgt>
<wgt id='2361'>0.83287E+02</wgt>
<wgt id='2362'>0.83440E+02</wgt>
<wgt id='2363'>0.83341E+02</wgt>
<wgt id='2364'>0.83343E+02</wgt>
<wgt id='2365'>0.83344E+02</wgt>
<wgt id='2366'>0.83450E+02</wgt>
<wgt id='2367'>0.83291E+02</wgt>
<wgt id='2368'>0.83406E+02</wgt>
<wgt id='2369'>0.83347E+02</wgt>
<wgt id='2370'>0.83418E+02</wgt>
<wgt id='2371'>0.83353E+02</wgt>
<wgt id='2372'>0.83353E+02</wgt>
<wgt id='2373'>0.83344E+02</wgt>
<wgt id='2374'>0.83370E+02</wgt>
<wgt id='2375'>0.83371E+02</wgt>
<wgt id='2376'>0.83395E+02</wgt>
<wgt id='2377'>0.83393E+02</wgt>
<wgt id='2378'>0.83355E+02</wgt>
<wgt id='2379'>0.83345E+02</wgt>
<wgt id='2380'>0.83410E+02</wgt>
<wgt id='2381'>0.83352E+02</wgt>
<wgt id='2382'>0.83316E+02</wgt>
<wgt id='2383'>0.83335E+02</wgt>
<wgt id='2384'>0.83305E+02</wgt>
<wgt id='2385'>0.83413E+02</wgt>
<wgt id='2386'>0.83341E+02</wgt>
<wgt id='2387'>0.83318E+02</wgt>
<wgt id='2388'>0.83330E+02</wgt>
<wgt id='2389'>0.83352E+02</wgt>
<wgt id='2390'>0.83423E+02</wgt>
<wgt id='2391'>0.83357E+02</wgt>
<wgt id='2392'>0.83378E+02</wgt>
<wgt id='2393'>0.83346E+02</wgt>
<wgt id='2394'>0.83395E+02</wgt>
<wgt id='2395'>0.83386E+02</wgt>
<wgt id='2396'>0.83352E+02</wgt>
<wgt id='2397'>0.83340E+02</wgt>
<wgt id='2398'>0.83336E+02</wgt>
<wgt id='2399'>0.83375E+02</wgt>
<wgt id='2400'>0.83361E+02</wgt>
<wgt id='2401'>0.82543E+02</wgt>
<wgt id='2402'>0.83907E+02</wgt>
<wgt id='2500'>0.80900E+02</wgt>
<wgt id='2501'>0.85325E+02</wgt>
<wgt id='2600'>0.77457E+02</wgt>
<wgt id='2601'>0.77553E+02</wgt>
<wgt id='2602'>0.77334E+02</wgt>
<wgt id='2603'>0.77402E+02</wgt>
<wgt id='2604'>0.77442E+02</wgt>
<wgt id='2605'>0.77316E+02</wgt>
<wgt id='2606'>0.77260E+02</wgt>
<wgt id='2607'>0.77521E+02</wgt>
<wgt id='2608'>0.77359E+02</wgt>
<wgt id='2609'>0.77309E+02</wgt>
<wgt id='2610'>0.77378E+02</wgt>
<wgt id='2611'>0.77347E+02</wgt>
<wgt id='2612'>0.77886E+02</wgt>
<wgt id='2613'>0.77399E+02</wgt>
<wgt id='2614'>0.77435E+02</wgt>
<wgt id='2615'>0.77201E+02</wgt>
<wgt id='2616'>0.77392E+02</wgt>
<wgt id='2617'>0.77237E+02</wgt>
<wgt id='2618'>0.77105E+02</wgt>
<wgt id='2619'>0.77549E+02</wgt>
<wgt id='2620'>0.77557E+02</wgt>
<wgt id='2621'>0.77395E+02</wgt>
<wgt id='2622'>0.77593E+02</wgt>
<wgt id='2623'>0.77467E+02</wgt>
<wgt id='2624'>0.77509E+02</wgt>
<wgt id='2625'>0.77323E+02</wgt>
<wgt id='2626'>0.77397E+02</wgt>
<wgt id='2627'>0.77355E+02</wgt>
<wgt id='2628'>0.77519E+02</wgt>
<wgt id='2629'>0.77411E+02</wgt>
<wgt id='2630'>0.77358E+02</wgt>
<wgt id='2631'>0.77471E+02</wgt>
<wgt id='2632'>0.77525E+02</wgt>
<wgt id='2633'>0.77489E+02</wgt>
<wgt id='2634'>0.77534E+02</wgt>
<wgt id='2635'>0.77515E+02</wgt>
<wgt id='2636'>0.77403E+02</wgt>
<wgt id='2637'>0.77472E+02</wgt>
<wgt id='2638'>0.77538E+02</wgt>
<wgt id='2639'>0.77436E+02</wgt>
<wgt id='2640'>0.77496E+02</wgt>
<wgt id='2641'>0.77563E+02</wgt>
<wgt id='2642'>0.77468E+02</wgt>
<wgt id='2643'>0.77537E+02</wgt>
<wgt id='2644'>0.77443E+02</wgt>
<wgt id='2645'>0.77489E+02</wgt>
<wgt id='2646'>0.77491E+02</wgt>
<wgt id='2647'>0.77471E+02</wgt>
<wgt id='2648'>0.77417E+02</wgt>
<wgt id='2649'>0.77411E+02</wgt>
<wgt id='2650'>0.77429E+02</wgt>
<wgt id='2651'>0.76733E+02</wgt>
<wgt id='2652'>0.78152E+02</wgt>
<wgt id='2700'>0.76020E+02</wgt>
<wgt id='2701'>0.76733E+02</wgt>
<wgt id='2702'>0.77135E+02</wgt>
<wgt id='2703'>0.77627E+02</wgt>
<wgt id='2704'>0.78152E+02</wgt>
<wgt id='2705'>0.78535E+02</wgt>
<wgt id='2800'>0.77102E+02</wgt>
<wgt id='4000'>0.79172E+02</wgt>
<wgt id='4001'>0.79466E+02</wgt>
<wgt id='4002'>0.79109E+02</wgt>
<wgt id='4003'>0.79626E+02</wgt>
<wgt id='4004'>0.78663E+02</wgt>
<wgt id='4005'>0.78465E+02</wgt>
<wgt id='4006'>0.79722E+02</wgt>
<wgt id='4007'>0.80394E+02</wgt>
<wgt id='4008'>0.77976E+02</wgt>
<wgt id='4009'>0.80188E+02</wgt>
<wgt id='4010'>0.78397E+02</wgt>
<wgt id='4011'>0.79098E+02</wgt>
<wgt id='4012'>0.79146E+02</wgt>
<wgt id='4013'>0.79865E+02</wgt>
<wgt id='4014'>0.78530E+02</wgt>
<wgt id='4015'>0.78361E+02</wgt>
<wgt id='4016'>0.79431E+02</wgt>
<wgt id='4017'>0.79005E+02</wgt>
<wgt id='4018'>0.79379E+02</wgt>
<wgt id='4019'>0.79967E+02</wgt>
<wgt id='4020'>0.77990E+02</wgt>
<wgt id='4021'>0.79279E+02</wgt>
<wgt id='4022'>0.78963E+02</wgt>
<wgt id='4023'>0.79110E+02</wgt>
<wgt id='4024'>0.79005E+02</wgt>
<wgt id='4025'>0.79569E+02</wgt>
<wgt id='4026'>0.78149E+02</wgt>
<wgt id='4027'>0.79093E+02</wgt>
<wgt id='4028'>0.79282E+02</wgt>
<wgt id='4029'>0.78110E+02</wgt>
<wgt id='4030'>0.79432E+02</wgt>
<wgt id='4031'>0.78716E+02</wgt>
<wgt id='4032'>0.79097E+02</wgt>
<wgt id='4033'>0.79256E+02</wgt>
<wgt id='4034'>0.78694E+02</wgt>
<wgt id='4035'>0.80471E+02</wgt>
<wgt id='4036'>0.78096E+02</wgt>
<wgt id='4037'>0.80256E+02</wgt>
<wgt id='4038'>0.78246E+02</wgt>
<wgt id='4039'>0.80731E+02</wgt>
<wgt id='4040'>0.77522E+02</wgt>
<wgt id='4041'>0.78892E+02</wgt>
<wgt id='4042'>0.79321E+02</wgt>
<wgt id='4043'>0.77806E+02</wgt>
<wgt id='4044'>0.79840E+02</wgt>
<wgt id='4045'>0.81293E+02</wgt>
<wgt id='4046'>0.78163E+02</wgt>
<wgt id='4047'>0.78016E+02</wgt>
<wgt id='4048'>0.79533E+02</wgt>
<wgt id='4049'>0.79064E+02</wgt>
<wgt id='4050'>0.79196E+02</wgt>
<wgt id='4051'>0.80688E+02</wgt>
<wgt id='4052'>0.77731E+02</wgt>
<wgt id='4053'>0.80343E+02</wgt>
<wgt id='4054'>0.77555E+02</wgt>
<wgt id='4055'>0.79579E+02</wgt>
<wgt id='4056'>0.78586E+02</wgt>
<wgt id='4057'>0.78266E+02</wgt>
<wgt id='4058'>0.79753E+02</wgt>
<wgt id='4100'>0.79552E+02</wgt>
<wgt id='4101'>0.79396E+02</wgt>
<wgt id='4102'>0.78883E+02</wgt>
<wgt id='4103'>0.78543E+02</wgt>
<wgt id='4200'>0.75124E+02</wgt>
<wgt id='4201'>0.75313E+02</wgt>
<wgt id='4202'>0.75167E+02</wgt>
<wgt id='4203'>0.74218E+02</wgt>
<wgt id='4204'>0.75748E+02</wgt>
<wgt id='4205'>0.75056E+02</wgt>
<wgt id='4206'>0.75268E+02</wgt>
<wgt id='4207'>0.74870E+02</wgt>
<wgt id='4208'>0.75544E+02</wgt>
<wgt id='4209'>0.75473E+02</wgt>
<wgt id='4210'>0.75040E+02</wgt>
<wgt id='4211'>0.76476E+02</wgt>
<wgt id='4212'>0.74010E+02</wgt>
<wgt id='4213'>0.75256E+02</wgt>
<wgt id='4214'>0.74890E+02</wgt>
<wgt id='4215'>0.75185E+02</wgt>
<wgt id='4216'>0.74555E+02</wgt>
<wgt id='4217'>0.74455E+02</wgt>
<wgt id='4218'>0.75535E+02</wgt>
<wgt id='4219'>0.73797E+02</wgt>
<wgt id='4220'>0.76282E+02</wgt>
<wgt id='4221'>0.74214E+02</wgt>
<wgt id='4222'>0.75947E+02</wgt>
<wgt id='4223'>0.76152E+02</wgt>
<wgt id='4224'>0.74122E+02</wgt>
<wgt id='4225'>0.73317E+02</wgt>
<wgt id='4226'>0.76748E+02</wgt>
<wgt id='4227'>0.75851E+02</wgt>
<wgt id='4228'>0.74512E+02</wgt>
<wgt id='4229'>0.74464E+02</wgt>
<wgt id='4230'>0.75643E+02</wgt>
<wgt id='4231'>0.75173E+02</wgt>
<wgt id='4232'>0.75001E+02</wgt>
<wgt id='4233'>0.75642E+02</wgt>
<wgt id='4234'>0.74434E+02</wgt>
<wgt id='4235'>0.75659E+02</wgt>
<wgt id='4236'>0.74602E+02</wgt>
<wgt id='4237'>0.74964E+02</wgt>
<wgt id='4238'>0.75146E+02</wgt>
<wgt id='4239'>0.76241E+02</wgt>
<wgt id='4240'>0.73286E+02</wgt>
<wgt id='4241'>0.74604E+02</wgt>
<wgt id='4242'>0.75655E+02</wgt>
<wgt id='4243'>0.75043E+02</wgt>
<wgt id='4244'>0.75405E+02</wgt>
<wgt id='4245'>0.73983E+02</wgt>
<wgt id='4246'>0.76295E+02</wgt>
<wgt id='4247'>0.74759E+02</wgt>
<wgt id='4248'>0.75289E+02</wgt>
<wgt id='4249'>0.76329E+02</wgt>
<wgt id='4250'>0.73722E+02</wgt>
<wgt id='4251'>0.74372E+02</wgt>
<wgt id='4252'>0.75527E+02</wgt>
<wgt id='4253'>0.74792E+02</wgt>
<wgt id='4254'>0.75347E+02</wgt>
<wgt id='4255'>0.75417E+02</wgt>
<wgt id='4256'>0.74802E+02</wgt>
<wgt id='4257'>0.73561E+02</wgt>
<wgt id='4258'>0.75569E+02</wgt>
<wgt id='4300'>0.78309E+02</wgt>
<wgt id='4301'>0.76902E+02</wgt>
<wgt id='5000'>0.78412E+02</wgt>
<wgt id='5001'>0.78458E+02</wgt>
<wgt id='5002'>0.78353E+02</wgt>
<wgt id='5003'>0.78434E+02</wgt>
<wgt id='5004'>0.78391E+02</wgt>
<wgt id='5005'>0.78417E+02</wgt>
<wgt id='5006'>0.78404E+02</wgt>
<wgt id='5007'>0.78494E+02</wgt>
<wgt id='5008'>0.78345E+02</wgt>
<wgt id='5009'>0.78538E+02</wgt>
<wgt id='5010'>0.78282E+02</wgt>
<wgt id='5011'>0.78647E+02</wgt>
<wgt id='5012'>0.78185E+02</wgt>
<wgt id='5013'>0.78542E+02</wgt>
<wgt id='5014'>0.78319E+02</wgt>
<wgt id='5015'>0.77958E+02</wgt>
<wgt id='5016'>0.77958E+02</wgt>
<wgt id='5017'>0.78868E+02</wgt>
<wgt id='5018'>0.78105E+02</wgt>
<wgt id='5019'>0.78851E+02</wgt>
<wgt id='5020'>0.77810E+02</wgt>
<wgt id='5021'>0.78506E+02</wgt>
<wgt id='5022'>0.78266E+02</wgt>
<wgt id='5023'>0.78306E+02</wgt>
<wgt id='5024'>0.78665E+02</wgt>
<wgt id='5025'>0.78033E+02</wgt>
<wgt id='5026'>0.78838E+02</wgt>
<wgt id='5027'>0.78463E+02</wgt>
<wgt id='5028'>0.78273E+02</wgt>
<wgt id='5029'>0.79145E+02</wgt>
<wgt id='5030'>0.77997E+02</wgt>
<wgt id='5031'>0.78004E+02</wgt>
<wgt id='5032'>0.79642E+02</wgt>
<wgt id='5033'>0.78365E+02</wgt>
<wgt id='5034'>0.78462E+02</wgt>
<wgt id='5035'>0.78407E+02</wgt>
<wgt id='5036'>0.78421E+02</wgt>
<wgt id='5037'>0.78251E+02</wgt>
<wgt id='5038'>0.78503E+02</wgt>
<wgt id='5039'>0.78666E+02</wgt>
<wgt id='5040'>0.77790E+02</wgt>
<wgt id='5041'>0.78588E+02</wgt>
<wgt id='5042'>0.78255E+02</wgt>
<wgt id='5043'>0.78566E+02</wgt>
<wgt id='5044'>0.78328E+02</wgt>
<wgt id='5045'>0.78176E+02</wgt>
<wgt id='5046'>0.78841E+02</wgt>
<wgt id='5047'>0.78457E+02</wgt>
<wgt id='5048'>0.78224E+02</wgt>
<wgt id='5049'>0.78396E+02</wgt>
<wgt id='5050'>0.78486E+02</wgt>
<wgt id='5051'>0.78538E+02</wgt>
<wgt id='5052'>0.78298E+02</wgt>
<wgt id='5053'>0.78379E+02</wgt>
<wgt id='5054'>0.78492E+02</wgt>
<wgt id='5055'>0.78465E+02</wgt>
<wgt id='5056'>0.78500E+02</wgt>
<wgt id='5057'>0.78069E+02</wgt>
<wgt id='5058'>0.78651E+02</wgt>
<wgt id='5059'>0.78436E+02</wgt>
<wgt id='5060'>0.78427E+02</wgt>
<wgt id='5061'>0.78820E+02</wgt>
<wgt id='5062'>0.78375E+02</wgt>
<wgt id='5063'>0.78812E+02</wgt>
<wgt id='5064'>0.78311E+02</wgt>
<wgt id='5100'>0.78412E+02</wgt>
<wgt id='5101'>0.78427E+02</wgt>
<wgt id='6000'>0.79320E+02</wgt>
<wgt id='6001'>0.79779E+02</wgt>
<wgt id='6002'>0.79472E+02</wgt>
<wgt id='6003'>0.79258E+02</wgt>
<wgt id='6004'>0.79282E+02</wgt>
<wgt id='6005'>0.79123E+02</wgt>
<wgt id='6006'>0.79902E+02</wgt>
<wgt id='6007'>0.79210E+02</wgt>
<wgt id='6008'>0.78662E+02</wgt>
<wgt id='6009'>0.79914E+02</wgt>
<wgt id='6010'>0.77695E+02</wgt>
<wgt id='6011'>0.79353E+02</wgt>
<wgt id='6012'>0.79731E+02</wgt>
<wgt id='6013'>0.79126E+02</wgt>
<wgt id='6014'>0.79334E+02</wgt>
<wgt id='6015'>0.78861E+02</wgt>
<wgt id='6016'>0.79337E+02</wgt>
<wgt id='6017'>0.79432E+02</wgt>
<wgt id='6018'>0.79240E+02</wgt>
<wgt id='6019'>0.79430E+02</wgt>
<wgt id='6020'>0.79519E+02</wgt>
<wgt id='6021'>0.79500E+02</wgt>
<wgt id='6022'>0.79551E+02</wgt>
<wgt id='6023'>0.79402E+02</wgt>
<wgt id='6024'>0.79426E+02</wgt>
<wgt id='6025'>0.79624E+02</wgt>
<wgt id='6026'>0.79418E+02</wgt>
<wgt id='6027'>0.79346E+02</wgt>
<wgt id='6028'>0.79212E+02</wgt>
<wgt id='6029'>0.79204E+02</wgt>
<wgt id='6030'>0.80351E+02</wgt>
<wgt id='6031'>0.79069E+02</wgt>
<wgt id='6032'>0.79418E+02</wgt>
<wgt id='6033'>0.79173E+02</wgt>
<wgt id='6034'>0.79591E+02</wgt>
<wgt id='6035'>0.79365E+02</wgt>
<wgt id='6036'>0.79630E+02</wgt>
<wgt id='6037'>0.79337E+02</wgt>
<wgt id='6038'>0.79419E+02</wgt>
<wgt id='6039'>0.79422E+02</wgt>
<wgt id='6040'>0.79277E+02</wgt>
<wgt id='6041'>0.78586E+02</wgt>
<wgt id='6042'>0.78933E+02</wgt>
<wgt id='7000'>0.78632E+02</wgt>
<wgt id='7001'>0.77769E+02</wgt>
<wgt id='7002'>0.77968E+02</wgt>
<wgt id='7003'>0.77848E+02</wgt>
<wgt id='7004'>0.77890E+02</wgt>
<wgt id='7005'>0.77987E+02</wgt>
<wgt id='7006'>0.77751E+02</wgt>
<wgt id='7007'>0.78470E+02</wgt>
<wgt id='7008'>0.77284E+02</wgt>
<wgt id='7009'>0.77517E+02</wgt>
<wgt id='7010'>0.78234E+02</wgt>
<wgt id='7011'>0.78234E+02</wgt>
<wgt id='7012'>0.77511E+02</wgt>
<wgt id='7013'>0.77801E+02</wgt>
<wgt id='7014'>0.77928E+02</wgt>
<wgt id='7015'>0.77733E+02</wgt>
<wgt id='7016'>0.77742E+02</wgt>
<wgt id='7017'>0.78024E+02</wgt>
<wgt id='7018'>0.77722E+02</wgt>
<wgt id='7019'>0.77839E+02</wgt>
<wgt id='7020'>0.77918E+02</wgt>
<wgt id='7021'>0.77720E+02</wgt>
<wgt id='7022'>0.77993E+02</wgt>
<wgt id='7023'>0.77555E+02</wgt>
<wgt id='7024'>0.78150E+02</wgt>
<wgt id='7025'>0.76917E+02</wgt>
<wgt id='7026'>0.78655E+02</wgt>
<wgt id='7027'>0.77547E+02</wgt>
<wgt id='7028'>0.78280E+02</wgt>
<wgt id='8000'>0.78229E+02</wgt>
<wgt id='8001'>0.78228E+02</wgt>
<wgt id='8002'>0.78257E+02</wgt>
<wgt id='8003'>0.78231E+02</wgt>
<wgt id='8004'>0.78226E+02</wgt>
<wgt id='8005'>0.78045E+02</wgt>
<wgt id='8006'>0.78322E+02</wgt>
<wgt id='8007'>0.78396E+02</wgt>
<wgt id='8008'>0.78434E+02</wgt>
<wgt id='8009'>0.78638E+02</wgt>
<wgt id='8010'>0.78123E+02</wgt>
<wgt id='8011'>0.78266E+02</wgt>
<wgt id='8012'>0.77895E+02</wgt>
<wgt id='8013'>0.78086E+02</wgt>
<wgt id='8014'>0.78448E+02</wgt>
<wgt id='8015'>0.78219E+02</wgt>
<wgt id='8016'>0.78307E+02</wgt>
<wgt id='8017'>0.78341E+02</wgt>
<wgt id='8018'>0.78433E+02</wgt>
<wgt id='8019'>0.78343E+02</wgt>
<wgt id='8020'>0.78103E+02</wgt>
<wgt id='8021'>0.78202E+02</wgt>
<wgt id='8022'>0.77946E+02</wgt>
<wgt id='8023'>0.78204E+02</wgt>
<wgt id='8024'>0.78060E+02</wgt>
<wgt id='8025'>0.78314E+02</wgt>
<wgt id='8026'>0.78367E+02</wgt>
<wgt id='8027'>0.78219E+02</wgt>
<wgt id='8028'>0.78310E+02</wgt>
<wgt id='8029'>0.77723E+02</wgt>
<wgt id='3000'>0.81104E+02</wgt>
<wgt id='3001'>0.80563E+02</wgt>
<wgt id='3002'>0.80194E+02</wgt>
<wgt id='3003'>0.83651E+02</wgt>
<wgt id='3004'>0.82273E+02</wgt>
<wgt id='3005'>0.79909E+02</wgt>
<wgt id='3006'>0.84958E+02</wgt>
<wgt id='3007'>0.81426E+02</wgt>
<wgt id='3008'>0.80471E+02</wgt>
<wgt id='3009'>0.81923E+02</wgt>
<wgt id='3010'>0.82215E+02</wgt>
<wgt id='3011'>0.82598E+02</wgt>
<wgt id='3012'>0.82788E+02</wgt>
<wgt id='3013'>0.79869E+02</wgt>
<wgt id='3014'>0.80374E+02</wgt>
<wgt id='3015'>0.79203E+02</wgt>
<wgt id='3016'>0.82033E+02</wgt>
<wgt id='3017'>0.82962E+02</wgt>
<wgt id='3018'>0.81687E+02</wgt>
<wgt id='3019'>0.78153E+02</wgt>
<wgt id='3020'>0.79381E+02</wgt>
<wgt id='3021'>0.78824E+02</wgt>
<wgt id='3022'>0.78156E+02</wgt>
<wgt id='3023'>0.78559E+02</wgt>
<wgt id='3024'>0.79759E+02</wgt>
<wgt id='3025'>0.79882E+02</wgt>
<wgt id='3026'>0.79983E+02</wgt>
<wgt id='3027'>0.78682E+02</wgt>
<wgt id='3028'>0.82909E+02</wgt>
<wgt id='3029'>0.82389E+02</wgt>
<wgt id='3030'>0.83695E+02</wgt>
<wgt id='3031'>0.82851E+02</wgt>
<wgt id='3032'>0.82775E+02</wgt>
<wgt id='3033'>0.79960E+02</wgt>
<wgt id='3034'>0.81890E+02</wgt>
<wgt id='3035'>0.81766E+02</wgt>
<wgt id='3036'>0.81504E+02</wgt>
<wgt id='3037'>0.81538E+02</wgt>
<wgt id='3038'>0.81175E+02</wgt>
<wgt id='3039'>0.81338E+02</wgt>
<wgt id='3040'>0.81347E+02</wgt>
<wgt id='3041'>0.81512E+02</wgt>
<wgt id='3042'>0.82387E+02</wgt>
<wgt id='3043'>0.80814E+02</wgt>
<wgt id='3044'>0.80935E+02</wgt>
<wgt id='3045'>0.80959E+02</wgt>
<wgt id='3046'>0.82040E+02</wgt>
<wgt id='3047'>0.79799E+02</wgt>
<wgt id='3048'>0.79396E+02</wgt>
<wgt id='3049'>0.80914E+02</wgt>
<wgt id='3050'>0.83206E+02</wgt>
<wgt id='3051'>0.81386E+02</wgt>
<wgt id='3052'>0.80396E+02</wgt>
<wgt id='3053'>0.79528E+02</wgt>
<wgt id='3054'>0.82019E+02</wgt>
<wgt id='3055'>0.78984E+02</wgt>
<wgt id='3056'>0.81193E+02</wgt>
<wgt id='3057'>0.80492E+02</wgt>
<wgt id='3058'>0.79006E+02</wgt>
<wgt id='3059'>0.83004E+02</wgt>
<wgt id='3060'>0.81152E+02</wgt>
<wgt id='3061'>0.80877E+02</wgt>
<wgt id='3062'>0.80830E+02</wgt>
<wgt id='3063'>0.77805E+02</wgt>
<wgt id='3064'>0.80053E+02</wgt>
<wgt id='3065'>0.80296E+02</wgt>
<wgt id='3066'>0.82673E+02</wgt>
<wgt id='3067'>0.79746E+02</wgt>
<wgt id='3068'>0.82152E+02</wgt>
<wgt id='3069'>0.80514E+02</wgt>
<wgt id='3070'>0.79288E+02</wgt>
<wgt id='3071'>0.81309E+02</wgt>
<wgt id='3072'>0.79905E+02</wgt>
<wgt id='3073'>0.82400E+02</wgt>
<wgt id='3074'>0.81654E+02</wgt>
<wgt id='3075'>0.82628E+02</wgt>
<wgt id='3076'>0.82382E+02</wgt>
<wgt id='3077'>0.79085E+02</wgt>
<wgt id='3078'>0.81314E+02</wgt>
<wgt id='3079'>0.80033E+02</wgt>
<wgt id='3080'>0.81216E+02</wgt>
<wgt id='3081'>0.78922E+02</wgt>
<wgt id='3082'>0.82033E+02</wgt>
<wgt id='3083'>0.81200E+02</wgt>
<wgt id='3084'>0.81194E+02</wgt>
<wgt id='3085'>0.83642E+02</wgt>
<wgt id='3086'>0.80295E+02</wgt>
<wgt id='3087'>0.82315E+02</wgt>
<wgt id='3088'>0.83618E+02</wgt>
<wgt id='3089'>0.85684E+02</wgt>
<wgt id='3090'>0.82496E+02</wgt>
<wgt id='3091'>0.80794E+02</wgt>
<wgt id='3092'>0.81801E+02</wgt>
<wgt id='3093'>0.81524E+02</wgt>
<wgt id='3094'>0.80845E+02</wgt>
<wgt id='3095'>0.81953E+02</wgt>
<wgt id='3096'>0.79343E+02</wgt>
<wgt id='3097'>0.79614E+02</wgt>
<wgt id='3098'>0.82174E+02</wgt>
<wgt id='3099'>0.80243E+02</wgt>
<wgt id='3100'>0.80376E+02</wgt>
<wgt id='3200'>0.77446E+02</wgt>
<wgt id='3201'>0.78727E+02</wgt>
<wgt id='3202'>0.76381E+02</wgt>
<wgt id='3203'>0.77048E+02</wgt>
<wgt id='3204'>0.76359E+02</wgt>
<wgt id='3205'>0.78361E+02</wgt>
<wgt id='3206'>0.77928E+02</wgt>
<wgt id='3207'>0.78725E+02</wgt>
<wgt id='3208'>0.78142E+02</wgt>
<wgt id='3209'>0.77091E+02</wgt>
<wgt id='3210'>0.77173E+02</wgt>
<wgt id='3211'>0.78225E+02</wgt>
<wgt id='3212'>0.76307E+02</wgt>
<wgt id='3213'>0.76876E+02</wgt>
<wgt id='3214'>0.77221E+02</wgt>
<wgt id='3215'>0.77742E+02</wgt>
<wgt id='3216'>0.78976E+02</wgt>
<wgt id='3217'>0.77772E+02</wgt>
<wgt id='3218'>0.77453E+02</wgt>
<wgt id='3219'>0.77374E+02</wgt>
<wgt id='3220'>0.77425E+02</wgt>
<wgt id='3221'>0.78204E+02</wgt>
<wgt id='3222'>0.79809E+02</wgt>
<wgt id='3223'>0.77264E+02</wgt>
<wgt id='3224'>0.77068E+02</wgt>
<wgt id='3225'>0.78387E+02</wgt>
<wgt id='3226'>0.77755E+02</wgt>
<wgt id='3227'>0.76997E+02</wgt>
<wgt id='3228'>0.76462E+02</wgt>
<wgt id='3229'>0.77837E+02</wgt>
<wgt id='3230'>0.77675E+02</wgt>
<wgt id='3231'>0.77613E+02</wgt>
<wgt id='3232'>0.78124E+02</wgt>
<wgt id='3233'>0.78352E+02</wgt>
<wgt id='3234'>0.77448E+02</wgt>
<wgt id='3235'>0.76885E+02</wgt>
<wgt id='3236'>0.75878E+02</wgt>
<wgt id='3237'>0.77216E+02</wgt>
<wgt id='3238'>0.77151E+02</wgt>
<wgt id='3239'>0.77327E+02</wgt>
<wgt id='3240'>0.76958E+02</wgt>
<wgt id='3241'>0.78534E+02</wgt>
<wgt id='3242'>0.76658E+02</wgt>
<wgt id='3243'>0.75862E+02</wgt>
<wgt id='3244'>0.76634E+02</wgt>
<wgt id='3245'>0.77922E+02</wgt>
<wgt id='3246'>0.76476E+02</wgt>
<wgt id='3247'>0.78589E+02</wgt>
<wgt id='3248'>0.76808E+02</wgt>
<wgt id='3249'>0.76983E+02</wgt>
<wgt id='3250'>0.78464E+02</wgt>
<wgt id='3251'>0.77576E+02</wgt>
<wgt id='3252'>0.77482E+02</wgt>
<wgt id='3253'>0.76449E+02</wgt>
<wgt id='3254'>0.77095E+02</wgt>
<wgt id='3255'>0.77498E+02</wgt>
<wgt id='3256'>0.77153E+02</wgt>
<wgt id='3257'>0.77358E+02</wgt>
<wgt id='3258'>0.77871E+02</wgt>
<wgt id='3259'>0.78061E+02</wgt>
<wgt id='3260'>0.77879E+02</wgt>
<wgt id='3261'>0.78772E+02</wgt>
<wgt id='3262'>0.76751E+02</wgt>
<wgt id='3263'>0.79001E+02</wgt>
<wgt id='3264'>0.77622E+02</wgt>
<wgt id='3265'>0.77281E+02</wgt>
<wgt id='3266'>0.77216E+02</wgt>
<wgt id='3267'>0.76666E+02</wgt>
<wgt id='3268'>0.78208E+02</wgt>
<wgt id='3269'>0.77652E+02</wgt>
<wgt id='3270'>0.76721E+02</wgt>
<wgt id='3271'>0.77349E+02</wgt>
<wgt id='3272'>0.78254E+02</wgt>
<wgt id='3273'>0.76822E+02</wgt>
<wgt id='3274'>0.77701E+02</wgt>
<wgt id='3275'>0.77695E+02</wgt>
<wgt id='3276'>0.76636E+02</wgt>
<wgt id='3277'>0.76378E+02</wgt>
<wgt id='3278'>0.76913E+02</wgt>
<wgt id='3279'>0.78771E+02</wgt>
<wgt id='3280'>0.77501E+02</wgt>
<wgt id='3281'>0.77399E+02</wgt>
<wgt id='3282'>0.77833E+02</wgt>
<wgt id='3283'>0.77439E+02</wgt>
<wgt id='3284'>0.78434E+02</wgt>
<wgt id='3285'>0.76244E+02</wgt>
<wgt id='3286'>0.77034E+02</wgt>
<wgt id='3287'>0.76136E+02</wgt>
<wgt id='3288'>0.78131E+02</wgt>
<wgt id='3289'>0.78500E+02</wgt>
<wgt id='3290'>0.79176E+02</wgt>
<wgt id='3291'>0.75209E+02</wgt>
<wgt id='3292'>0.76572E+02</wgt>
<wgt id='3293'>0.77434E+02</wgt>
<wgt id='3294'>0.75210E+02</wgt>
<wgt id='3295'>0.77051E+02</wgt>
<wgt id='3296'>0.78976E+02</wgt>
<wgt id='3297'>0.76331E+02</wgt>
<wgt id='3298'>0.77870E+02</wgt>
<wgt id='3299'>0.76708E+02</wgt>
<wgt id='3300'>0.78017E+02</wgt>
<wgt id='3301'>0.76733E+02</wgt>
<wgt id='3302'>0.78152E+02</wgt>
<wgt id='3400'>0.78087E+02</wgt>
<wgt id='3401'>0.78243E+02</wgt>
<wgt id='3402'>0.77568E+02</wgt>
<wgt id='3403'>0.78544E+02</wgt>
<wgt id='3404'>0.79442E+02</wgt>
<wgt id='3405'>0.79428E+02</wgt>
<wgt id='3406'>0.77503E+02</wgt>
<wgt id='3407'>0.77150E+02</wgt>
<wgt id='3408'>0.79844E+02</wgt>
<wgt id='3409'>0.79678E+02</wgt>
<wgt id='3410'>0.78663E+02</wgt>
<wgt id='3411'>0.78339E+02</wgt>
<wgt id='3412'>0.78523E+02</wgt>
<wgt id='3413'>0.78175E+02</wgt>
<wgt id='3414'>0.78257E+02</wgt>
<wgt id='3415'>0.77690E+02</wgt>
<wgt id='3416'>0.77578E+02</wgt>
<wgt id='3417'>0.77311E+02</wgt>
<wgt id='3418'>0.77354E+02</wgt>
<wgt id='3419'>0.77159E+02</wgt>
<wgt id='3420'>0.78575E+02</wgt>
<wgt id='3421'>0.78827E+02</wgt>
<wgt id='3422'>0.78218E+02</wgt>
<wgt id='3423'>0.78844E+02</wgt>
<wgt id='3424'>0.78683E+02</wgt>
<wgt id='3425'>0.78898E+02</wgt>
<wgt id='3426'>0.78274E+02</wgt>
<wgt id='3427'>0.78570E+02</wgt>
<wgt id='3428'>0.78942E+02</wgt>
<wgt id='3429'>0.77435E+02</wgt>
<wgt id='3430'>0.78289E+02</wgt>
<wgt id='3431'>0.77493E+02</wgt>
<wgt id='3432'>0.76857E+02</wgt>
<wgt id='3433'>0.76515E+02</wgt>
<wgt id='3434'>0.78200E+02</wgt>
<wgt id='3435'>0.78311E+02</wgt>
<wgt id='3436'>0.77980E+02</wgt>
<wgt id='3437'>0.77201E+02</wgt>
<wgt id='3438'>0.77082E+02</wgt>
<wgt id='3439'>0.79221E+02</wgt>
<wgt id='3440'>0.78145E+02</wgt>
<wgt id='3441'>0.77921E+02</wgt>
<wgt id='3442'>0.76429E+02</wgt>
<wgt id='3443'>0.77545E+02</wgt>
<wgt id='3444'>0.78527E+02</wgt>
<wgt id='3445'>0.77885E+02</wgt>
<wgt id='3446'>0.78856E+02</wgt>
<wgt id='3447'>0.79333E+02</wgt>
<wgt id='3448'>0.78627E+02</wgt>
<wgt id='3449'>0.79516E+02</wgt>
<wgt id='3450'>0.78868E+02</wgt>
<wgt id='3451'>0.78750E+02</wgt>
<wgt id='3452'>0.77495E+02</wgt>
<wgt id='3453'>0.77397E+02</wgt>
<wgt id='3454'>0.77174E+02</wgt>
<wgt id='3455'>0.79101E+02</wgt>
<wgt id='3456'>0.78309E+02</wgt>
<wgt id='3457'>0.80053E+02</wgt>
<wgt id='3458'>0.78723E+02</wgt>
<wgt id='3459'>0.77793E+02</wgt>
<wgt id='3460'>0.78136E+02</wgt>
<wgt id='3461'>0.77397E+02</wgt>
<wgt id='3462'>0.77369E+02</wgt>
<wgt id='3463'>0.77223E+02</wgt>
<wgt id='3464'>0.78666E+02</wgt>
<wgt id='3465'>0.77991E+02</wgt>
<wgt id='3466'>0.78466E+02</wgt>
<wgt id='3467'>0.77740E+02</wgt>
<wgt id='3468'>0.77581E+02</wgt>
<wgt id='3469'>0.78656E+02</wgt>
<wgt id='3470'>0.78086E+02</wgt>
<wgt id='3471'>0.78315E+02</wgt>
<wgt id='3472'>0.77337E+02</wgt>
<wgt id='3473'>0.78241E+02</wgt>
<wgt id='3474'>0.78822E+02</wgt>
<wgt id='3475'>0.78253E+02</wgt>
<wgt id='3476'>0.77992E+02</wgt>
<wgt id='3477'>0.78095E+02</wgt>
<wgt id='3478'>0.78832E+02</wgt>
<wgt id='3479'>0.78680E+02</wgt>
<wgt id='3480'>0.77037E+02</wgt>
<wgt id='3481'>0.77621E+02</wgt>
<wgt id='3482'>0.78405E+02</wgt>
<wgt id='3483'>0.76706E+02</wgt>
<wgt id='3484'>0.78074E+02</wgt>
<wgt id='3485'>0.77324E+02</wgt>
<wgt id='3486'>0.77036E+02</wgt>
<wgt id='3487'>0.79354E+02</wgt>
<wgt id='3488'>0.78950E+02</wgt>
<wgt id='3489'>0.77403E+02</wgt>
<wgt id='3490'>0.79308E+02</wgt>
<wgt id='3491'>0.77308E+02</wgt>
<wgt id='3492'>0.78672E+02</wgt>
<wgt id='3493'>0.76477E+02</wgt>
<wgt id='3494'>0.75347E+02</wgt>
<wgt id='3495'>0.77475E+02</wgt>
<wgt id='3496'>0.77443E+02</wgt>
<wgt id='3497'>0.77697E+02</wgt>
<wgt id='3498'>0.77363E+02</wgt>
<wgt id='3499'>0.78692E+02</wgt>
<wgt id='3500'>0.77961E+02</wgt>
</rwgt>
</event>
<event>
     13 322200  8.11039E+01  1.19029E+02 -1.00000E+00  1.19017E-01
      21    -1     0     0   512   513  0.000000000E+00  0.000000000E+00  4.648262567E+02  4.648262567E+02  0.000000000E+00  0.00000E+00  9.000E+00
       2    -1     0     0   502     0  0.000000000E+00  0.000000000E+00 -4.365747791E+02  4.365747791E+02  0.000000000E+00  0.00000E+00  9.000E+00
       6     2     1     2   502     0  5.579911778E+01  1.884211746E+01  3.802128855E+02  4.216315021E+02  1.724607731E+02  0.00000E+00  9.000E+00
      -6     2     1     2     0   513  3.258553793E+01 -9.856751057E+01 -2.107480493E+02  2.950826571E+02  1.785543693E+02  0.00000E+00  9.000E+00
       2     1     1     2   512     0 -8.838465571E+01  7.972539311E+01 -1.412133586E+02  1.846868767E+02  2.100000000E-01  0.00000E+00  9.000E+00
      24     2     3     3     0     0 -5.497075418E+00  1.105208193E+01  8.232146538E+01  1.173572676E+02  8.272568067E+01  0.00000E+00  9.000E+00
       5     1     3     3   502     0  6.129619320E+01  7.790035529E+00  2.978914202E+02  3.042742345E+02  5.060000000E+00  0.00000E+00 -1.000E+00
     -24     2     4     4     0     0 -5.100256036E+01 -5.574613240E+01 -1.348507864E+02  1.742247292E+02  8.037803963E+01  0.00000E+00  9.000E+00
      -5     1     4     4     0   513  8.358809829E+01 -4.282137817E+01 -7.589726299E+01  1.208579279E+02  5.060000000E+00  0.00000E+00  1.000E+00
     -11     1     6     6     0     0  1.449338378E+00 -3.305755362E+01  5.730942270E+01  6.617607093E+01  5.100000000E-04  0.00000E+00  1.000E+00
      12     1     6     6     0     0 -6.946413795E+00  4.410963556E+01  2.501204268E+01  5.118119667E+01  0.000000000E+00  0.00000E+00 -1.000E+00
      13     1     8     8     0     0 -6.906001304E+01 -2.281310931E+01 -8.711472190E+01  1.134844011E+02  1.057000000E-01  0.00000E+00 -1.000E+00
     -14     1     8     8     0     0  1.805745269E+01 -3.293302309E+01 -4.773606446E+01  6.074032809E+01  0.000000000E+00  0.00000E+00  1.000E+00
#rwgt            1           1   1104.4658738229825               10       40410           0
<rwgt>
<wgt id='1001'>0.81104E+02</wgt>
<wgt id='1002'>0.91074E+02</wgt>
<wgt id='1003'>0.69481E+02</wgt>
<wgt id='1004'>0.69393E+02</wgt>
<wgt id='1005'>0.76438E+02</wgt>
<wgt id='1006'>0.61150E+02</wgt>
<wgt id='1007'>0.96071E+02</wgt>
<wgt id='1008'>0.11049E+03</wgt>
<wgt id='1009'>0.79316E+02</wgt>
<wgt id='2000'>0.81104E+02</wgt>
<wgt id='2001'>0.81189E+02</wgt>
<wgt id='2002'>0.80895E+02</wgt>
<wgt id='2003'>0.81072E+02</wgt>
<wgt id='2004'>0.81262E+02</wgt>
<wgt id='2005'>0.81148E+02</wgt>
<wgt id='2006'>0.81271E+02</wgt>
<wgt id='2007'>0.81121E+02</wgt>
<wgt id='2008'>0.81380E+02</wgt>
<wgt id='2009'>0.80991E+02</wgt>
<wgt id='2010'>0.81106E+02</wgt>
<wgt id='2011'>0.80973E+02</wgt>
<wgt id='2012'>0.81141E+02</wgt>
<wgt id='2013'>0.81320E+02</wgt>
<wgt id='2014'>0.81484E+02</wgt>
<wgt id='2015'>0.81353E+02</wgt>
<wgt id='2016'>0.81185E+02</wgt>
<wgt id='2017'>0.81272E+02</wgt>
<wgt id='2018'>0.80734E+02</wgt>
<wgt id='2019'>0.81326E+02</wgt>
<wgt id='2020'>0.80952E+02</wgt>
<wgt id='2021'>0.80835E+02</wgt>
<wgt id='2022'>0.80972E+02</wgt>
<wgt id='2023'>0.80977E+02</wgt>
<wgt id='2024'>0.81083E+02</wgt>
<wgt id='2025'>0.81075E+02</wgt>
<wgt id='2026'>0.81009E+02</wgt>
<wgt id='2027'>0.80706E+02</wgt>
<wgt id='2028'>0.81207E+02</wgt>
<wgt id='2029'>0.80674E+02</wgt>
<wgt id='2030'>0.81052E+02</wgt>
<wgt id='2031'>0.80798E+02</wgt>
<wgt id='2032'>0.81173E+02</wgt>
<wgt id='2033'>0.80989E+02</wgt>
<wgt id='2034'>0.80960E+02</wgt>
<wgt id='2035'>0.81101E+02</wgt>
<wgt id='2036'>0.81315E+02</wgt>
<wgt id='2037'>0.81087E+02</wgt>
<wgt id='2038'>0.81048E+02</wgt>
<wgt id='2039'>0.81129E+02</wgt>
<wgt id='2040'>0.81038E+02</wgt>
<wgt id='2041'>0.81104E+02</wgt>
<wgt id='2042'>0.81144E+02</wgt>
<wgt id='2043'>0.81046E+02</wgt>
<wgt id='2044'>0.81179E+02</wgt>
<wgt id='2045'>0.81110E+02</wgt>
<wgt id='2046'>0.81119E+02</wgt>
<wgt id='2047'>0.81085E+02</wgt>
<wgt id='2048'>0.81057E+02</wgt>
<wgt id='2049'>0.81030E+02</wgt>
<wgt id='2050'>0.81071E+02</wgt>
<wgt id='2051'>0.81104E+02</wgt>
<wgt id='2052'>0.81183E+02</wgt>
<wgt id='2053'>0.81091E+02</wgt>
<wgt id='2054'>0.81098E+02</wgt>
<wgt id='2055'>0.81123E+02</wgt>
<wgt id='2056'>0.81059E+02</wgt>
<wgt id='2057'>0.81134E+02</wgt>
<wgt id='2058'>0.81119E+02</wgt>
<wgt id='2059'>0.81109E+02</wgt>
<wgt id='2060'>0.81107E+02</wgt>
<wgt id='2061'>0.81086E+02</wgt>
<wgt id='2062'>0.81177E+02</wgt>
<wgt id='2063'>0.81131E+02</wgt>
<wgt id='2064'>0.81118E+02</wgt>
<wgt id='2065'>0.81187E+02</wgt>
<wgt id='2066'>0.81098E+02</wgt>
<wgt id='2067'>0.81130E+02</wgt>
<wgt id='2068'>0.81120E+02</wgt>
<wgt id='2069'>0.81103E+02</wgt>
<wgt id='2070'>0.81117E+02</wgt>
<wgt id='2071'>0.81106E+02</wgt>
<wgt id='2072'>0.81109E+02</wgt>
<wgt id='2073'>0.81123E+02</wgt>
<wgt id='2074'>0.81083E+02</wgt>
<wgt id='2075'>0.81087E+02</wgt>
<wgt id='2076'>0.81088E+02</wgt>
<wgt id='2077'>0.81147E+02</wgt>
<wgt id='2078'>0.81118E+02</wgt>
<wgt id='2079'>0.81083E+02</wgt>
<wgt id='2080'>0.81113E+02</wgt>
<wgt id='2081'>0.81098E+02</wgt>
<wgt id='2082'>0.81114E+02</wgt>
<wgt id='2083'>0.81138E+02</wgt>
<wgt id='2084'>0.81108E+02</wgt>
<wgt id='2085'>0.81104E+02</wgt>
<wgt id='2086'>0.81095E+02</wgt>
<wgt id='2087'>0.81111E+02</wgt>
<wgt id='2088'>0.81097E+02</wgt>
<wgt id='2089'>0.81093E+02</wgt>
<wgt id='2090'>0.81121E+02</wgt>
<wgt id='2091'>0.81102E+02</wgt>
<wgt id='2092'>0.81126E+02</wgt>
<wgt id='2093'>0.81089E+02</wgt>
<wgt id='2094'>0.81111E+02</wgt>
<wgt id='2095'>0.81117E+02</wgt>
<wgt id='2096'>0.81092E+02</wgt>
<wgt id='2097'>0.81115E+02</wgt>
<wgt id='2098'>0.81099E+02</wgt>
<wgt id='2099'>0.81115E+02</wgt>
<wgt id='2100'>0.81104E+02</wgt>
<wgt id='2101'>0.78673E+02</wgt>
<wgt id='2102'>0.83655E+02</wgt>
<wgt id='2200'>0.81226E+02</wgt>
<wgt id='2201'>0.70004E+02</wgt>
<wgt id='2202'>0.72129E+02</wgt>
<wgt id='2203'>0.74608E+02</wgt>
<wgt id='2204'>0.76770E+02</wgt>
<wgt id='2205'>0.80111E+02</wgt>
<wgt id='2206'>0.82461E+02</wgt>
<wgt id='2207'>0.85576E+02</wgt>
<wgt id='2208'>0.87932E+02</wgt>
<wgt id='2300'>0.84821E+02</wgt>
<wgt id='2301'>0.84838E+02</wgt>
<wgt id='2302'>0.84846E+02</wgt>
<wgt id='2303'>0.84809E+02</wgt>
<wgt id='2304'>0.85002E+02</wgt>
<wgt id='2305'>0.84911E+02</wgt>
<wgt id='2306'>0.84750E+02</wgt>
<wgt id='2307'>0.85004E+02</wgt>
<wgt id='2308'>0.84822E+02</wgt>
<wgt id='2309'>0.85064E+02</wgt>
<wgt id='2310'>0.84760E+02</wgt>
<wgt id='2311'>0.84632E+02</wgt>
<wgt id='2312'>0.84816E+02</wgt>
<wgt id='2313'>0.85037E+02</wgt>
<wgt id='2314'>0.84859E+02</wgt>
<wgt id='2315'>0.84619E+02</wgt>
<wgt id='2316'>0.84840E+02</wgt>
<wgt id='2317'>0.84821E+02</wgt>
<wgt id='2318'>0.85024E+02</wgt>
<wgt id='2319'>0.84778E+02</wgt>
<wgt id='2320'>0.84624E+02</wgt>
<wgt id='2321'>0.84612E+02</wgt>
<wgt id='2322'>0.84817E+02</wgt>
<wgt id='2323'>0.84646E+02</wgt>
<wgt id='2324'>0.84485E+02</wgt>
<wgt id='2325'>0.84889E+02</wgt>
<wgt id='2326'>0.85036E+02</wgt>
<wgt id='2327'>0.84834E+02</wgt>
<wgt id='2328'>0.84364E+02</wgt>
<wgt id='2329'>0.84531E+02</wgt>
<wgt id='2330'>0.85199E+02</wgt>
<wgt id='2331'>0.85016E+02</wgt>
<wgt id='2332'>0.85029E+02</wgt>
<wgt id='2333'>0.85136E+02</wgt>
<wgt id='2334'>0.84913E+02</wgt>
<wgt id='2335'>0.85162E+02</wgt>
<wgt id='2336'>0.84893E+02</wgt>
<wgt id='2337'>0.84788E+02</wgt>
<wgt id='2338'>0.84840E+02</wgt>
<wgt id='2339'>0.84695E+02</wgt>
<wgt id='2340'>0.84789E+02</wgt>
<wgt id='2341'>0.84931E+02</wgt>
<wgt id='2342'>0.84704E+02</wgt>
<wgt id='2343'>0.84702E+02</wgt>
<wgt id='2344'>0.84819E+02</wgt>
<wgt id='2345'>0.84904E+02</wgt>
<wgt id='2346'>0.84925E+02</wgt>
<wgt id='2347'>0.84820E+02</wgt>
<wgt id='2348'>0.84870E+02</wgt>
<wgt id='2349'>0.84807E+02</wgt>
<wgt id='2350'>0.84798E+02</wgt>
<wgt id='2351'>0.84934E+02</wgt>
<wgt id='2352'>0.84757E+02</wgt>
<wgt id='2353'>0.84792E+02</wgt>
<wgt id='2354'>0.84824E+02</wgt>
<wgt id='2355'>0.84706E+02</wgt>
<wgt id='2356'>0.84835E+02</wgt>
<wgt id='2357'>0.84781E+02</wgt>
<wgt id='2358'>0.84754E+02</wgt>
<wgt id='2359'>0.84826E+02</wgt>
<wgt id='2360'>0.84853E+02</wgt>
<wgt id='2361'>0.84838E+02</wgt>
<wgt id='2362'>0.84839E+02</wgt>
<wgt id='2363'>0.84867E+02</wgt>
<wgt id='2364'>0.84789E+02</wgt>
<wgt id='2365'>0.84820E+02</wgt>
<wgt id='2366'>0.84842E+02</wgt>
<wgt id='2367'>0.84771E+02</wgt>
<wgt id='2368'>0.84842E+02</wgt>
<wgt id='2369'>0.84794E+02</wgt>
<wgt id='2370'>0.84831E+02</wgt>
<wgt id='2371'>0.84808E+02</wgt>
<wgt id='2372'>0.84823E+02</wgt>
<wgt id='2373'>0.84789E+02</wgt>
<wgt id='2374'>0.84854E+02</wgt>
<wgt id='2375'>0.84822E+02</wgt>
<wgt id='2376'>0.84815E+02</wgt>
<wgt id='2377'>0.84832E+02</wgt>
<wgt id='2378'>0.84840E+02</wgt>
<wgt id='2379'>0.84809E+02</wgt>
<wgt id='2380'>0.84812E+02</wgt>
<wgt id='2381'>0.84820E+02</wgt>
<wgt id='2382'>0.84808E+02</wgt>
<wgt id='2383'>0.84820E+02</wgt>
<wgt id='2384'>0.84809E+02</wgt>
<wgt id='2385'>0.84834E+02</wgt>
<wgt id='2386'>0.84806E+02</wgt>
<wgt id='2387'>0.84808E+02</wgt>
<wgt id='2388'>0.84814E+02</wgt>
<wgt id='2389'>0.84821E+02</wgt>
<wgt id='2390'>0.84831E+02</wgt>
<wgt id='2391'>0.84824E+02</wgt>
<wgt id='2392'>0.84815E+02</wgt>
<wgt id='2393'>0.84825E+02</wgt>
<wgt id='2394'>0.84840E+02</wgt>
<wgt id='2395'>0.84822E+02</wgt>
<wgt id='2396'>0.84810E+02</wgt>
<wgt id='2397'>0.84805E+02</wgt>
<wgt id='2398'>0.84809E+02</wgt>
<wgt id='2399'>0.84832E+02</wgt>
<wgt id='2400'>0.84827E+02</wgt>
<wgt id='2401'>0.82236E+02</wgt>
<wgt id='2402'>0.87238E+02</wgt>
<wgt id='2500'>0.81412E+02</wgt>
<wgt id='2501'>0.86872E+02</wgt>
<wgt id='2600'>0.77749E+02</wgt>
<wgt id='2601'>0.77797E+02</wgt>
<wgt id='2602'>0.77634E+02</wgt>
<wgt id='2603'>0.77704E+02</wgt>
<wgt id='2604'>0.77724E+02</wgt>
<wgt id='2605'>0.77630E+02</wgt>
<wgt id='2606'>0.77605E+02</wgt>
<wgt id='2607'>0.77815E+02</wgt>
<wgt id='2608'>0.77693E+02</wgt>
<wgt id='2609'>0.77636E+02</wgt>
<wgt id='2610'>0.77697E+02</wgt>
<wgt id='2611'>0.77653E+02</wgt>
<wgt id='2612'>0.78103E+02</wgt>
<wgt id='2613'>0.77688E+02</wgt>
<wgt id='2614'>0.77712E+02</wgt>
<wgt id='2615'>0.77537E+02</wgt>
<wgt id='2616'>0.77695E+02</wgt>
<wgt id='2617'>0.77550E+02</wgt>
<wgt id='2618'>0.77460E+02</wgt>
<wgt id='2619'>0.77817E+02</wgt>
<wgt id='2620'>0.77779E+02</wgt>
<wgt id='2621'>0.77702E+02</wgt>
<wgt id='2622'>0.77874E+02</wgt>
<wgt id='2623'>0.77746E+02</wgt>
<wgt id='2624'>0.77774E+02</wgt>
<wgt id='2625'>0.77634E+02</wgt>
<wgt id='2626'>0.77722E+02</wgt>
<wgt id='2627'>0.77681E+02</wgt>
<wgt id='2628'>0.77781E+02</wgt>
<wgt id='2629'>0.77739E+02</wgt>
<wgt id='2630'>0.77717E+02</wgt>
<wgt id='2631'>0.77756E+02</wgt>
<wgt id='2632'>0.77770E+02</wgt>
<wgt id='2633'>0.77754E+02</wgt>
<wgt id='2634'>0.77775E+02</wgt>
<wgt id='2635'>0.77749E+02</wgt>
<wgt id='2636'>0.77732E+02</wgt>
<wgt id='2637'>0.77741E+02</wgt>
<wgt id='2638'>0.77763E+02</wgt>
<wgt id='2639'>0.77744E+02</wgt>
<wgt id='2640'>0.77755E+02</wgt>
<wgt id='2641'>0.77754E+02</wgt>
<wgt id='2642'>0.77751E+02</wgt>
<wgt id='2643'>0.77768E+02</wgt>
<wgt id='2644'>0.77744E+02</wgt>
<wgt id='2645'>0.77749E+02</wgt>
<wgt id='2646'>0.77717E+02</wgt>
<wgt id='2647'>0.77761E+02</wgt>
<wgt id='2648'>0.77757E+02</wgt>
<wgt id='2649'>0.77756E+02</wgt>
<wgt id='2650'>0.77750E+02</wgt>
<wgt id='2651'>0.76273E+02</wgt>
<wgt id='2652'>0.79149E+02</wgt>
<wgt id='2700'>0.74812E+02</wgt>
<wgt id='2701'>0.76273E+02</wgt>
<wgt id='2702'>0.77067E+02</wgt>
<wgt id='2703'>0.78338E+02</wgt>
<wgt id='2704'>0.79149E+02</wgt>
<wgt id='2705'>0.80427E+02</wgt>
<wgt id='2800'>0.78915E+02</wgt>
<wgt id='4000'>0.79669E+02</wgt>
<wgt id='4001'>0.80076E+02</wgt>
<wgt id='4002'>0.79591E+02</wgt>
<wgt id='4003'>0.80096E+02</wgt>
<wgt id='4004'>0.79210E+02</wgt>
<wgt id='4005'>0.79326E+02</wgt>
<wgt id='4006'>0.80037E+02</wgt>
<wgt id='4007'>0.80792E+02</wgt>
<wgt id='4008'>0.78589E+02</wgt>
<wgt id='4009'>0.80304E+02</wgt>
<wgt id='4010'>0.79116E+02</wgt>
<wgt id='4011'>0.79954E+02</wgt>
<wgt id='4012'>0.79406E+02</wgt>
<wgt id='4013'>0.80392E+02</wgt>
<wgt id='4014'>0.79040E+02</wgt>
<wgt id='4015'>0.79136E+02</wgt>
<wgt id='4016'>0.80165E+02</wgt>
<wgt id='4017'>0.79559E+02</wgt>
<wgt id='4018'>0.79831E+02</wgt>
<wgt id='4019'>0.80347E+02</wgt>
<wgt id='4020'>0.78667E+02</wgt>
<wgt id='4021'>0.79767E+02</wgt>
<wgt id='4022'>0.79477E+02</wgt>
<wgt id='4023'>0.79659E+02</wgt>
<wgt id='4024'>0.79749E+02</wgt>
<wgt id='4025'>0.79945E+02</wgt>
<wgt id='4026'>0.79021E+02</wgt>
<wgt id='4027'>0.79575E+02</wgt>
<wgt id='4028'>0.79840E+02</wgt>
<wgt id='4029'>0.78950E+02</wgt>
<wgt id='4030'>0.79568E+02</wgt>
<wgt id='4031'>0.79354E+02</wgt>
<wgt id='4032'>0.79923E+02</wgt>
<wgt id='4033'>0.79790E+02</wgt>
<wgt id='4034'>0.79230E+02</wgt>
<wgt id='4035'>0.81080E+02</wgt>
<wgt id='4036'>0.78616E+02</wgt>
<wgt id='4037'>0.81134E+02</wgt>
<wgt id='4038'>0.78547E+02</wgt>
<wgt id='4039'>0.81194E+02</wgt>
<wgt id='4040'>0.78126E+02</wgt>
<wgt id='4041'>0.79557E+02</wgt>
<wgt id='4042'>0.79646E+02</wgt>
<wgt id='4043'>0.78525E+02</wgt>
<wgt id='4044'>0.79933E+02</wgt>
<wgt id='4045'>0.81412E+02</wgt>
<wgt id='4046'>0.78866E+02</wgt>
<wgt id='4047'>0.78546E+02</wgt>
<wgt id='4048'>0.80208E+02</wgt>
<wgt id='4049'>0.79649E+02</wgt>
<wgt id='4050'>0.79703E+02</wgt>
<wgt id='4051'>0.80821E+02</wgt>
<wgt id='4052'>0.78642E+02</wgt>
<wgt id='4053'>0.80516E+02</wgt>
<wgt id='4054'>0.78382E+02</wgt>
<wgt id='4055'>0.80171E+02</wgt>
<wgt id='4056'>0.79173E+02</wgt>
<wgt id='4057'>0.78805E+02</wgt>
<wgt id='4058'>0.80216E+02</wgt>
<wgt id='4100'>0.80089E+02</wgt>
<wgt id='4101'>0.79902E+02</wgt>
<wgt id='4102'>0.79393E+02</wgt>
<wgt id='4103'>0.79084E+02</wgt>
<wgt id='4200'>0.75998E+02</wgt>
<wgt id='4201'>0.76136E+02</wgt>
<wgt id='4202'>0.76155E+02</wgt>
<wgt id='4203'>0.75218E+02</wgt>
<wgt id='4204'>0.76600E+02</wgt>
<wgt id='4205'>0.75896E+02</wgt>
<wgt id='4206'>0.76285E+02</wgt>
<wgt id='4207'>0.75887E+02</wgt>
<wgt id='4208'>0.76163E+02</wgt>
<wgt id='4209'>0.76252E+02</wgt>
<wgt id='4210'>0.75978E+02</wgt>
<wgt id='4211'>0.77182E+02</wgt>
<wgt id='4212'>0.75076E+02</wgt>
<wgt id='4213'>0.76235E+02</wgt>
<wgt id='4214'>0.75641E+02</wgt>
<wgt id='4215'>0.76090E+02</wgt>
<wgt id='4216'>0.75633E+02</wgt>
<wgt id='4217'>0.75567E+02</wgt>
<wgt id='4218'>0.76310E+02</wgt>
<wgt id='4219'>0.74701E+02</wgt>
<wgt id='4220'>0.77229E+02</wgt>
<wgt id='4221'>0.75296E+02</wgt>
<wgt id='4222'>0.76829E+02</wgt>
<wgt id='4223'>0.76521E+02</wgt>
<wgt id='4224'>0.75154E+02</wgt>
<wgt id='4225'>0.74443E+02</wgt>
<wgt id='4226'>0.77518E+02</wgt>
<wgt id='4227'>0.76756E+02</wgt>
<wgt id='4228'>0.75369E+02</wgt>
<wgt id='4229'>0.75081E+02</wgt>
<wgt id='4230'>0.76640E+02</wgt>
<wgt id='4231'>0.76078E+02</wgt>
<wgt id='4232'>0.75817E+02</wgt>
<wgt id='4233'>0.76315E+02</wgt>
<wgt id='4234'>0.75417E+02</wgt>
<wgt id='4235'>0.76455E+02</wgt>
<wgt id='4236'>0.75642E+02</wgt>
<wgt id='4237'>0.76096E+02</wgt>
<wgt id='4238'>0.75613E+02</wgt>
<wgt id='4239'>0.76569E+02</wgt>
<wgt id='4240'>0.74551E+02</wgt>
<wgt id='4241'>0.75641E+02</wgt>
<wgt id='4242'>0.76379E+02</wgt>
<wgt id='4243'>0.75897E+02</wgt>
<wgt id='4244'>0.76414E+02</wgt>
<wgt id='4245'>0.75171E+02</wgt>
<wgt id='4246'>0.76760E+02</wgt>
<wgt id='4247'>0.75697E+02</wgt>
<wgt id='4248'>0.76102E+02</wgt>
<wgt id='4249'>0.77375E+02</wgt>
<wgt id='4250'>0.74421E+02</wgt>
<wgt id='4251'>0.75367E+02</wgt>
<wgt id='4252'>0.76316E+02</wgt>
<wgt id='4253'>0.75679E+02</wgt>
<wgt id='4254'>0.76164E+02</wgt>
<wgt id='4255'>0.76411E+02</wgt>
<wgt id='4256'>0.75682E+02</wgt>
<wgt id='4257'>0.74524E+02</wgt>
<wgt id='4258'>0.76417E+02</wgt>
<wgt id='4300'>0.78877E+02</wgt>
<wgt id='4301'>0.77633E+02</wgt>
<wgt id='5000'>0.79059E+02</wgt>
<wgt id='5001'>0.79109E+02</wgt>
<wgt id='5002'>0.78994E+02</wgt>
<wgt id='5003'>0.79078E+02</wgt>
<wgt id='5004'>0.79041E+02</wgt>
<wgt id='5005'>0.79077E+02</wgt>
<wgt id='5006'>0.79028E+02</wgt>
<wgt id='5007'>0.79134E+02</wgt>
<wgt id='5008'>0.78997E+02</wgt>
<wgt id='5009'>0.79190E+02</wgt>
<wgt id='5010'>0.78924E+02</wgt>
<wgt id='5011'>0.79262E+02</wgt>
<wgt id='5012'>0.78863E+02</wgt>
<wgt id='5013'>0.79191E+02</wgt>
<wgt id='5014'>0.78965E+02</wgt>
<wgt id='5015'>0.78627E+02</wgt>
<wgt id='5016'>0.78627E+02</wgt>
<wgt id='5017'>0.79514E+02</wgt>
<wgt id='5018'>0.78751E+02</wgt>
<wgt id='5019'>0.79373E+02</wgt>
<wgt id='5020'>0.78628E+02</wgt>
<wgt id='5021'>0.79145E+02</wgt>
<wgt id='5022'>0.78926E+02</wgt>
<wgt id='5023'>0.78976E+02</wgt>
<wgt id='5024'>0.79256E+02</wgt>
<wgt id='5025'>0.78780E+02</wgt>
<wgt id='5026'>0.79370E+02</wgt>
<wgt id='5027'>0.79107E+02</wgt>
<wgt id='5028'>0.78929E+02</wgt>
<wgt id='5029'>0.79894E+02</wgt>
<wgt id='5030'>0.78587E+02</wgt>
<wgt id='5031'>0.78619E+02</wgt>
<wgt id='5032'>0.80397E+02</wgt>
<wgt id='5033'>0.79039E+02</wgt>
<wgt id='5034'>0.79080E+02</wgt>
<wgt id='5035'>0.79067E+02</wgt>
<wgt id='5036'>0.79050E+02</wgt>
<wgt id='5037'>0.78890E+02</wgt>
<wgt id='5038'>0.79154E+02</wgt>
<wgt id='5039'>0.79277E+02</wgt>
<wgt id='5040'>0.78518E+02</wgt>
<wgt id='5041'>0.79195E+02</wgt>
<wgt id='5042'>0.78914E+02</wgt>
<wgt id='5043'>0.79233E+02</wgt>
<wgt id='5044'>0.78946E+02</wgt>
<wgt id='5045'>0.78820E+02</wgt>
<wgt id='5046'>0.79580E+02</wgt>
<wgt id='5047'>0.79106E+02</wgt>
<wgt id='5048'>0.78848E+02</wgt>
<wgt id='5049'>0.79034E+02</wgt>
<wgt id='5050'>0.79133E+02</wgt>
<wgt id='5051'>0.79193E+02</wgt>
<wgt id='5052'>0.78949E+02</wgt>
<wgt id='5053'>0.79005E+02</wgt>
<wgt id='5054'>0.79223E+02</wgt>
<wgt id='5055'>0.79099E+02</wgt>
<wgt id='5056'>0.79101E+02</wgt>
<wgt id='5057'>0.78775E+02</wgt>
<wgt id='5058'>0.79257E+02</wgt>
<wgt id='5059'>0.79040E+02</wgt>
<wgt id='5060'>0.79080E+02</wgt>
<wgt id='5061'>0.79405E+02</wgt>
<wgt id='5062'>0.79082E+02</wgt>
<wgt id='5063'>0.79426E+02</wgt>
<wgt id='5064'>0.78971E+02</wgt>
<wgt id='5100'>0.79059E+02</wgt>
<wgt id='5101'>0.79069E+02</wgt>
<wgt id='6000'>0.79362E+02</wgt>
<wgt id='6001'>0.79546E+02</wgt>
<wgt id='6002'>0.79365E+02</wgt>
<wgt id='6003'>0.79317E+02</wgt>
<wgt id='6004'>0.79402E+02</wgt>
<wgt id='6005'>0.79220E+02</wgt>
<wgt id='6006'>0.79691E+02</wgt>
<wgt id='6007'>0.79213E+02</wgt>
<wgt id='6008'>0.79004E+02</wgt>
<wgt id='6009'>0.79692E+02</wgt>
<wgt id='6010'>0.78009E+02</wgt>
<wgt id='6011'>0.79338E+02</wgt>
<wgt id='6012'>0.79647E+02</wgt>
<wgt id='6013'>0.79151E+02</wgt>
<wgt id='6014'>0.79289E+02</wgt>
<wgt id='6015'>0.78812E+02</wgt>
<wgt id='6016'>0.79468E+02</wgt>
<wgt id='6017'>0.79367E+02</wgt>
<wgt id='6018'>0.79182E+02</wgt>
<wgt id='6019'>0.79432E+02</wgt>
<wgt id='6020'>0.79527E+02</wgt>
<wgt id='6021'>0.79464E+02</wgt>
<wgt id='6022'>0.79424E+02</wgt>
<wgt id='6023'>0.79391E+02</wgt>
<wgt id='6024'>0.79442E+02</wgt>
<wgt id='6025'>0.79625E+02</wgt>
<wgt id='6026'>0.79404E+02</wgt>
<wgt id='6027'>0.79381E+02</wgt>
<wgt id='6028'>0.79204E+02</wgt>
<wgt id='6029'>0.79169E+02</wgt>
<wgt id='6030'>0.80039E+02</wgt>
<wgt id='6031'>0.79194E+02</wgt>
<wgt id='6032'>0.79412E+02</wgt>
<wgt id='6033'>0.79234E+02</wgt>
<wgt id='6034'>0.79575E+02</wgt>
<wgt id='6035'>0.79417E+02</wgt>
<wgt id='6036'>0.79851E+02</wgt>
<wgt id='6037'>0.79368E+02</wgt>
<wgt id='6038'>0.79426E+02</wgt>
<wgt id='6039'>0.79495E+02</wgt>
<wgt id='6040'>0.79335E+02</wgt>
<wgt id='6041'>0.78244E+02</wgt>
<wgt id='6042'>0.80375E+02</wgt>
<wgt id='7000'>0.78874E+02</wgt>
<wgt id='7001'>0.78535E+02</wgt>
<wgt id='7002'>0.78723E+02</wgt>
<wgt id='7003'>0.78593E+02</wgt>
<wgt id='7004'>0.78665E+02</wgt>
<wgt id='7005'>0.78731E+02</wgt>
<wgt id='7006'>0.78528E+02</wgt>
<wgt id='7007'>0.79179E+02</wgt>
<wgt id='7008'>0.78095E+02</wgt>
<wgt id='7009'>0.78238E+02</wgt>
<wgt id='7010'>0.79034E+02</wgt>
<wgt id='7011'>0.78930E+02</wgt>
<wgt id='7012'>0.78333E+02</wgt>
<wgt id='7013'>0.78511E+02</wgt>
<wgt id='7014'>0.78738E+02</wgt>
<wgt id='7015'>0.78537E+02</wgt>
<wgt id='7016'>0.78471E+02</wgt>
<wgt id='7017'>0.78678E+02</wgt>
<wgt id='7018'>0.78586E+02</wgt>
<wgt id='7019'>0.78477E+02</wgt>
<wgt id='7020'>0.78794E+02</wgt>
<wgt id='7021'>0.78804E+02</wgt>
<wgt id='7022'>0.78447E+02</wgt>
<wgt id='7023'>0.78250E+02</wgt>
<wgt id='7024'>0.79022E+02</wgt>
<wgt id='7025'>0.77552E+02</wgt>
<wgt id='7026'>0.79642E+02</wgt>
<wgt id='7027'>0.78190E+02</wgt>
<wgt id='7028'>0.79122E+02</wgt>
<wgt id='8000'>0.78723E+02</wgt>
<wgt id='8001'>0.78714E+02</wgt>
<wgt id='8002'>0.78748E+02</wgt>
<wgt id='8003'>0.78724E+02</wgt>
<wgt id='8004'>0.78720E+02</wgt>
<wgt id='8005'>0.78570E+02</wgt>
<wgt id='8006'>0.78823E+02</wgt>
<wgt id='8007'>0.78915E+02</wgt>
<wgt id='8008'>0.78917E+02</wgt>
<wgt id='8009'>0.79085E+02</wgt>
<wgt id='8010'>0.78621E+02</wgt>
<wgt id='8011'>0.78745E+02</wgt>
<wgt id='8012'>0.78387E+02</wgt>
<wgt id='8013'>0.78541E+02</wgt>
<wgt id='8014'>0.78951E+02</wgt>
<wgt id='8015'>0.78678E+02</wgt>
<wgt id='8016'>0.78807E+02</wgt>
<wgt id='8017'>0.78772E+02</wgt>
<wgt id='8018'>0.78947E+02</wgt>
<wgt id='8019'>0.78793E+02</wgt>
<wgt id='8020'>0.78667E+02</wgt>
<wgt id='8021'>0.78655E+02</wgt>
<wgt id='8022'>0.78613E+02</wgt>
<wgt id='8023'>0.78637E+02</wgt>
<wgt id='8024'>0.78460E+02</wgt>
<wgt id='8025'>0.78692E+02</wgt>
<wgt id='8026'>0.78838E+02</wgt>
<wgt id='8027'>0.78783E+02</wgt>
<wgt id='8028'>0.78787E+02</wgt>
<wgt id='8029'>0.78514E+02</wgt>
<wgt id='3000'>0.81104E+02</wgt>
<wgt id='3001'>0.81849E+02</wgt>
<wgt id='3002'>0.79820E+02</wgt>
<wgt id='3003'>0.82170E+02</wgt>
<wgt id='3004'>0.81871E+02</wgt>
<wgt id='3005'>0.80345E+02</wgt>
<wgt id='3006'>0.84944E+02</wgt>
<wgt id='3007'>0.81060E+02</wgt>
<wgt id='3008'>0.80186E+02</wgt>
<wgt id='3009'>0.81496E+02</wgt>
<wgt id='3010'>0.82685E+02</wgt>
<wgt id='3011'>0.82900E+02</wgt>
<wgt id='3012'>0.82497E+02</wgt>
<wgt id='3013'>0.80406E+02</wgt>
<wgt id='3014'>0.80762E+02</wgt>
<wgt id='3015'>0.79795E+02</wgt>
<wgt id='3016'>0.81662E+02</wgt>
<wgt id='3017'>0.82613E+02</wgt>
<wgt id='3018'>0.81390E+02</wgt>
<wgt id='3019'>0.78532E+02</wgt>
<wgt id='3020'>0.79574E+02</wgt>
<wgt id='3021'>0.79654E+02</wgt>
<wgt id='3022'>0.78288E+02</wgt>
<wgt id='3023'>0.78999E+02</wgt>
<wgt id='3024'>0.79929E+02</wgt>
<wgt id='3025'>0.79628E+02</wgt>
<wgt id='3026'>0.80344E+02</wgt>
<wgt id='3027'>0.78585E+02</wgt>
<wgt id='3028'>0.82274E+02</wgt>
<wgt id='3029'>0.82180E+02</wgt>
<wgt id='3030'>0.82818E+02</wgt>
<wgt id='3031'>0.82260E+02</wgt>
<wgt id='3032'>0.83597E+02</wgt>
<wgt id='3033'>0.80060E+02</wgt>
<wgt id='3034'>0.81767E+02</wgt>
<wgt id='3035'>0.82041E+02</wgt>
<wgt id='3036'>0.81813E+02</wgt>
<wgt id='3037'>0.81284E+02</wgt>
<wgt id='3038'>0.80758E+02</wgt>
<wgt id='3039'>0.81544E+02</wgt>
<wgt id='3040'>0.81003E+02</wgt>
<wgt id='3041'>0.80904E+02</wgt>
<wgt id='3042'>0.81610E+02</wgt>
<wgt id='3043'>0.80946E+02</wgt>
<wgt id='3044'>0.81162E+02</wgt>
<wgt id='3045'>0.80931E+02</wgt>
<wgt id='3046'>0.81755E+02</wgt>
<wgt id='3047'>0.80906E+02</wgt>
<wgt id='3048'>0.79789E+02</wgt>
<wgt id='3049'>0.81358E+02</wgt>
<wgt id='3050'>0.82986E+02</wgt>
<wgt id='3051'>0.81710E+02</wgt>
<wgt id='3052'>0.80179E+02</wgt>
<wgt id='3053'>0.80096E+02</wgt>
<wgt id='3054'>0.81672E+02</wgt>
<wgt id='3055'>0.79581E+02</wgt>
<wgt id='3056'>0.80753E+02</wgt>
<wgt id='3057'>0.80624E+02</wgt>
<wgt id='3058'>0.79226E+02</wgt>
<wgt id='3059'>0.81652E+02</wgt>
<wgt id='3060'>0.81702E+02</wgt>
<wgt id='3061'>0.81171E+02</wgt>
<wgt id='3062'>0.80903E+02</wgt>
<wgt id='3063'>0.78817E+02</wgt>
<wgt id='3064'>0.80735E+02</wgt>
<wgt id='3065'>0.80383E+02</wgt>
<wgt id='3066'>0.81419E+02</wgt>
<wgt id='3067'>0.79753E+02</wgt>
<wgt id='3068'>0.81379E+02</wgt>
<wgt id='3069'>0.81054E+02</wgt>
<wgt id='3070'>0.80229E+02</wgt>
<wgt id='3071'>0.81577E+02</wgt>
<wgt id='3072'>0.79459E+02</wgt>
<wgt id='3073'>0.81762E+02</wgt>
<wgt id='3074'>0.81195E+02</wgt>
<wgt id='3075'>0.82562E+02</wgt>
<wgt id='3076'>0.82237E+02</wgt>
<wgt id='3077'>0.80075E+02</wgt>
<wgt id='3078'>0.81773E+02</wgt>
<wgt id='3079'>0.80534E+02</wgt>
<wgt id='3080'>0.81835E+02</wgt>
<wgt id='3081'>0.79690E+02</wgt>
<wgt id='3082'>0.81662E+02</wgt>
<wgt id='3083'>0.81416E+02</wgt>
<wgt id='3084'>0.80786E+02</wgt>
<wgt id='3085'>0.82635E+02</wgt>
<wgt id='3086'>0.80624E+02</wgt>
<wgt id='3087'>0.81772E+02</wgt>
<wgt id='3088'>0.83241E+02</wgt>
<wgt id='3089'>0.83505E+02</wgt>
<wgt id='3090'>0.82034E+02</wgt>
<wgt id='3091'>0.80448E+02</wgt>
<wgt id='3092'>0.82063E+02</wgt>
<wgt id='3093'>0.81189E+02</wgt>
<wgt id='3094'>0.81150E+02</wgt>
<wgt id='3095'>0.82222E+02</wgt>
<wgt id='3096'>0.79970E+02</wgt>
<wgt id='3097'>0.80461E+02</wgt>
<wgt id='3098'>0.81973E+02</wgt>
<wgt id='3099'>0.79846E+02</wgt>
<wgt id='3100'>0.80170E+02</wgt>
<wgt id='3200'>0.77783E+02</wgt>
<wgt id='3201'>0.78563E+02</wgt>
<wgt id='3202'>0.76646E+02</wgt>
<wgt id='3203'>0.78004E+02</wgt>
<wgt id='3204'>0.76953E+02</wgt>
<wgt id='3205'>0.78592E+02</wgt>
<wgt id='3206'>0.78342E+02</wgt>
<wgt id='3207'>0.78743E+02</wgt>
<wgt id='3208'>0.78433E+02</wgt>
<wgt id='3209'>0.77491E+02</wgt>
<wgt id='3210'>0.77623E+02</wgt>
<wgt id='3211'>0.78201E+02</wgt>
<wgt id='3212'>0.76612E+02</wgt>
<wgt id='3213'>0.77731E+02</wgt>
<wgt id='3214'>0.77496E+02</wgt>
<wgt id='3215'>0.77858E+02</wgt>
<wgt id='3216'>0.79009E+02</wgt>
<wgt id='3217'>0.78267E+02</wgt>
<wgt id='3218'>0.77791E+02</wgt>
<wgt id='3219'>0.77410E+02</wgt>
<wgt id='3220'>0.77538E+02</wgt>
<wgt id='3221'>0.78655E+02</wgt>
<wgt id='3222'>0.79365E+02</wgt>
<wgt id='3223'>0.77192E+02</wgt>
<wgt id='3224'>0.77760E+02</wgt>
<wgt id='3225'>0.78570E+02</wgt>
<wgt id='3226'>0.78256E+02</wgt>
<wgt id='3227'>0.77306E+02</wgt>
<wgt id='3228'>0.77321E+02</wgt>
<wgt id='3229'>0.78130E+02</wgt>
<wgt id='3230'>0.78322E+02</wgt>
<wgt id='3231'>0.78044E+02</wgt>
<wgt id='3232'>0.78147E+02</wgt>
<wgt id='3233'>0.78700E+02</wgt>
<wgt id='3234'>0.77534E+02</wgt>
<wgt id='3235'>0.77021E+02</wgt>
<wgt id='3236'>0.76551E+02</wgt>
<wgt id='3237'>0.77467E+02</wgt>
<wgt id='3238'>0.77637E+02</wgt>
<wgt id='3239'>0.77425E+02</wgt>
<wgt id='3240'>0.77224E+02</wgt>
<wgt id='3241'>0.78495E+02</wgt>
<wgt id='3242'>0.77121E+02</wgt>
<wgt id='3243'>0.76663E+02</wgt>
<wgt id='3244'>0.77486E+02</wgt>
<wgt id='3245'>0.77949E+02</wgt>
<wgt id='3246'>0.77053E+02</wgt>
<wgt id='3247'>0.78162E+02</wgt>
<wgt id='3248'>0.77523E+02</wgt>
<wgt id='3249'>0.77233E+02</wgt>
<wgt id='3250'>0.78165E+02</wgt>
<wgt id='3251'>0.77685E+02</wgt>
<wgt id='3252'>0.78008E+02</wgt>
<wgt id='3253'>0.77408E+02</wgt>
<wgt id='3254'>0.77297E+02</wgt>
<wgt id='3255'>0.77666E+02</wgt>
<wgt id='3256'>0.77425E+02</wgt>
<wgt id='3257'>0.77518E+02</wgt>
<wgt id='3258'>0.78110E+02</wgt>
<wgt id='3259'>0.78193E+02</wgt>
<wgt id='3260'>0.78305E+02</wgt>
<wgt id='3261'>0.78703E+02</wgt>
<wgt id='3262'>0.77386E+02</wgt>
<wgt id='3263'>0.79059E+02</wgt>
<wgt id='3264'>0.77840E+02</wgt>
<wgt id='3265'>0.77561E+02</wgt>
<wgt id='3266'>0.77467E+02</wgt>
<wgt id='3267'>0.77324E+02</wgt>
<wgt id='3268'>0.78329E+02</wgt>
<wgt id='3269'>0.77999E+02</wgt>
<wgt id='3270'>0.77654E+02</wgt>
<wgt id='3271'>0.77900E+02</wgt>
<wgt id='3272'>0.78252E+02</wgt>
<wgt id='3273'>0.77468E+02</wgt>
<wgt id='3274'>0.78015E+02</wgt>
<wgt id='3275'>0.78113E+02</wgt>
<wgt id='3276'>0.77006E+02</wgt>
<wgt id='3277'>0.76961E+02</wgt>
<wgt id='3278'>0.77442E+02</wgt>
<wgt id='3279'>0.78754E+02</wgt>
<wgt id='3280'>0.77641E+02</wgt>
<wgt id='3281'>0.78024E+02</wgt>
<wgt id='3282'>0.78032E+02</wgt>
<wgt id='3283'>0.78266E+02</wgt>
<wgt id='3284'>0.78080E+02</wgt>
<wgt id='3285'>0.77004E+02</wgt>
<wgt id='3286'>0.77410E+02</wgt>
<wgt id='3287'>0.77297E+02</wgt>
<wgt id='3288'>0.78065E+02</wgt>
<wgt id='3289'>0.78738E+02</wgt>
<wgt id='3290'>0.79206E+02</wgt>
<wgt id='3291'>0.76180E+02</wgt>
<wgt id='3292'>0.76952E+02</wgt>
<wgt id='3293'>0.77757E+02</wgt>
<wgt id='3294'>0.75979E+02</wgt>
<wgt id='3295'>0.77397E+02</wgt>
<wgt id='3296'>0.79111E+02</wgt>
<wgt id='3297'>0.77307E+02</wgt>
<wgt id='3298'>0.77669E+02</wgt>
<wgt id='3299'>0.77317E+02</wgt>
<wgt id='3300'>0.78378E+02</wgt>
<wgt id='3301'>0.76273E+02</wgt>
<wgt id='3302'>0.79149E+02</wgt>
<wgt id='3400'>0.78291E+02</wgt>
<wgt id='3401'>0.78343E+02</wgt>
<wgt id='3402'>0.77610E+02</wgt>
<wgt id='3403'>0.79050E+02</wgt>
<wgt id='3404'>0.79439E+02</wgt>
<wgt id='3405'>0.79427E+02</wgt>
<wgt id='3406'>0.77919E+02</wgt>
<wgt id='3407'>0.77394E+02</wgt>
<wgt id='3408'>0.79675E+02</wgt>
<wgt id='3409'>0.79593E+02</wgt>
<wgt id='3410'>0.78855E+02</wgt>
<wgt id='3411'>0.78521E+02</wgt>
<wgt id='3412'>0.78717E+02</wgt>
<wgt id='3413'>0.78154E+02</wgt>
<wgt id='3414'>0.78408E+02</wgt>
<wgt id='3415'>0.78383E+02</wgt>
<wgt id='3416'>0.77992E+02</wgt>
<wgt id='3417'>0.77844E+02</wgt>
<wgt id='3418'>0.77733E+02</wgt>
<wgt id='3419'>0.77585E+02</wgt>
<wgt id='3420'>0.78723E+02</wgt>
<wgt id='3421'>0.79031E+02</wgt>
<wgt id='3422'>0.78554E+02</wgt>
<wgt id='3423'>0.79098E+02</wgt>
<wgt id='3424'>0.78621E+02</wgt>
<wgt id='3425'>0.78558E+02</wgt>
<wgt id='3426'>0.78201E+02</wgt>
<wgt id='3427'>0.78575E+02</wgt>
<wgt id='3428'>0.78890E+02</wgt>
<wgt id='3429'>0.77668E+02</wgt>
<wgt id='3430'>0.78376E+02</wgt>
<wgt id='3431'>0.77922E+02</wgt>
<wgt id='3432'>0.77380E+02</wgt>
<wgt id='3433'>0.77013E+02</wgt>
<wgt id='3434'>0.78478E+02</wgt>
<wgt id='3435'>0.78762E+02</wgt>
<wgt id='3436'>0.78200E+02</wgt>
<wgt id='3437'>0.77738E+02</wgt>
<wgt id='3438'>0.77474E+02</wgt>
<wgt id='3439'>0.79115E+02</wgt>
<wgt id='3440'>0.78489E+02</wgt>
<wgt id='3441'>0.78321E+02</wgt>
<wgt id='3442'>0.77099E+02</wgt>
<wgt id='3443'>0.78148E+02</wgt>
<wgt id='3444'>0.78520E+02</wgt>
<wgt id='3445'>0.77971E+02</wgt>
<wgt id='3446'>0.79480E+02</wgt>
<wgt id='3447'>0.79410E+02</wgt>
<wgt id='3448'>0.78786E+02</wgt>
<wgt id='3449'>0.79443E+02</wgt>
<wgt id='3450'>0.78560E+02</wgt>
<wgt id='3451'>0.78795E+02</wgt>
<wgt id='3452'>0.77772E+02</wgt>
<wgt id='3453'>0.77322E+02</wgt>
<wgt id='3454'>0.77448E+02</wgt>
<wgt id='3455'>0.79249E+02</wgt>
<wgt id='3456'>0.78650E+02</wgt>
<wgt id='3457'>0.79949E+02</wgt>
<wgt id='3458'>0.78770E+02</wgt>
<wgt id='3459'>0.78214E+02</wgt>
<wgt id='3460'>0.78262E+02</wgt>
<wgt id='3461'>0.77868E+02</wgt>
<wgt id='3462'>0.78013E+02</wgt>
<wgt id='3463'>0.77712E+02</wgt>
<wgt id='3464'>0.78597E+02</wgt>
<wgt id='3465'>0.78318E+02</wgt>
<wgt id='3466'>0.78943E+02</wgt>
<wgt id='3467'>0.77970E+02</wgt>
<wgt id='3468'>0.77995E+02</wgt>
<wgt id='3469'>0.78631E+02</wgt>
<wgt id='3470'>0.78099E+02</wgt>
<wgt id='3471'>0.77999E+02</wgt>
<wgt id='3472'>0.77579E+02</wgt>
<wgt id='3473'>0.78515E+02</wgt>
<wgt id='3474'>0.78530E+02</wgt>
<wgt id='3475'>0.78206E+02</wgt>
<wgt id='3476'>0.78026E+02</wgt>
<wgt id='3477'>0.77971E+02</wgt>
<wgt id='3478'>0.79129E+02</wgt>
<wgt id='3479'>0.78638E+02</wgt>
<wgt id='3480'>0.77450E+02</wgt>
<wgt id='3481'>0.77929E+02</wgt>
<wgt id='3482'>0.78520E+02</wgt>
<wgt id='3483'>0.77033E+02</wgt>
<wgt id='3484'>0.78459E+02</wgt>
<wgt id='3485'>0.77836E+02</wgt>
<wgt id='3486'>0.77313E+02</wgt>
<wgt id='3487'>0.79081E+02</wgt>
<wgt id='3488'>0.78695E+02</wgt>
<wgt id='3489'>0.77652E+02</wgt>
<wgt id='3490'>0.79270E+02</wgt>
<wgt id='3491'>0.77632E+02</wgt>
<wgt id='3492'>0.78628E+02</wgt>
<wgt id='3493'>0.77217E+02</wgt>
<wgt id='3494'>0.75936E+02</wgt>
<wgt id='3495'>0.78475E+02</wgt>
<wgt id='3496'>0.77336E+02</wgt>
<wgt id='3497'>0.77805E+02</wgt>
<wgt id='3498'>0.77935E+02</wgt>
<wgt id='3499'>0.78310E+02</wgt>
<wgt id='3500'>0.78325E+02</wgt>
</rwgt>
</event>
<event>
     13 322200  8.11039E+01  1.33255E+02 -1.00000E+00  1.17018E-01
      21    -1     0     0   504   505  0.000000000E+00  0.000000000E+00  5.995783349E+02  5.995783349E+02  0.000000000E+00  0.00000E+00  9.000E+00
      21    -1     0     0   502   503  0.000000000E+00  0.000000000E+00 -3.552168421E+02  3.552168421E+02  0.000000000E+00  0.00000E+00  9.000E+00
       6     2     1     2   502     0 -7.693434959E+01  8.228811151E+01  2.178009103E+02  2.996433512E+02  1.722169387E+02  0.00000E+00  9.000E+00
      -6     2     1     2     0   505 -1.901302547E+01 -1.747597816E+02  2.781065105E+02  3.704901627E+02  1.703445130E+02  0.00000E+00  9.000E+00
      21     1     1     2   504   503  9.594737506E+01  9.247167004E+01 -2.515459279E+02  2.846616630E+02  3.814697266E-06  0.00000E+00  9.000E+00
      24     2     3     3     0     0 -8.153409457E+01 -4.731985749E+00  1.531875167E+02  1.910424801E+02  7.975345550E+01  0.00000E+00  9.000E+00
       5     1     3     3   502     0  4.599744985E+00  8.702009726E+01  6.461339364E+01  1.086008712E+02  5.060000000E+00  0.00000E+00 -1.000E+00
     -24     2     4     4     0     0 -4.236934669E+01 -8.291277587E+01  7.170743721E+01  1.433171642E+02  8.202538067E+01  0.00000E+00  9.000E+00
      -5     1     4     4     0   505  2.335632121E+01 -9.184700568E+01  2.063990732E+02  2.271729985E+02  5.060000000E+00  0.00000E+00  1.000E+00
     -15     1     6     6     0     0  7.742395048E+00 -2.114759367E+01  2.216851182E+01  3.165068790E+01  1.777000000E+00  0.00000E+00  1.000E+00
      16     1     6     6     0     0 -8.927648962E+01  1.641560793E+01  1.310190048E+02  1.593917922E+02  0.000000000E+00  0.00000E+00 -1.000E+00
      13     1     8     8     0     0  2.495081375E+01 -2.353011206E+01  2.108830374E+01  4.026086198E+01  1.057000000E-01  0.00000E+00 -1.000E+00
     -14     1     8     8     0     0 -6.732016044E+01 -5.938266381E+01  5.061913347E+01  1.030563023E+02  0.000000000E+00  0.00000E+00  1.000E+00
#rwgt            2           1   60.138267584134255               10       40756           0
<rwgt>
<wgt id='1001'>0.81104E+02</wgt>
<wgt id='1002'>0.72864E+02</wgt>
<wgt id='1003'>0.90818E+02</wgt>
<wgt id='1004'>0.62485E+02</wgt>
<wgt id='1005'>0.56137E+02</wgt>
<wgt id='1006'>0.69969E+02</wgt>
<wgt id='1007'>0.10806E+03</wgt>
<wgt id='1008'>0.97079E+02</wgt>
<wgt id='1009'>0.12100E+03</wgt>
<wgt id='2000'>0.81104E+02</wgt>
<wgt id='2001'>0.80948E+02</wgt>
<wgt id='2002'>0.80946E+02</wgt>
<wgt id='2003'>0.81242E+02</wgt>
<wgt id='2004'>0.81233E+02</wgt>
<wgt id='2005'>0.80934E+02</wgt>
<wgt id='2006'>0.81213E+02</wgt>
<wgt id='2007'>0.80890E+02</wgt>
<wgt id='2008'>0.80996E+02</wgt>
<wgt id='2009'>0.81091E+02</wgt>
<wgt id='2010'>0.81060E+02</wgt>
<wgt id='2011'>0.81380E+02</wgt>
<wgt id='2012'>0.81021E+02</wgt>
<wgt id='2013'>0.81345E+02</wgt>
<wgt id='2014'>0.81403E+02</wgt>
<wgt id='2015'>0.81286E+02</wgt>
<wgt id='2016'>0.81346E+02</wgt>
<wgt id='2017'>0.81497E+02</wgt>
<wgt id='2018'>0.80743E+02</wgt>
<wgt id='2019'>0.80564E+02</wgt>
<wgt id='2020'>0.81220E+02</wgt>
<wgt id='2021'>0.80756E+02</wgt>
<wgt id='2022'>0.81171E+02</wgt>
<wgt id='2023'>0.81290E+02</wgt>
<wgt id='2024'>0.80837E+02</wgt>
<wgt id='2025'>0.81072E+02</wgt>
<wgt id='2026'>0.80941E+02</wgt>
<wgt id='2027'>0.80841E+02</wgt>
<wgt id='2028'>0.81211E+02</wgt>
<wgt id='2029'>0.80706E+02</wgt>
<wgt id='2030'>0.81173E+02</wgt>
<wgt id='2031'>0.80705E+02</wgt>
<wgt id='2032'>0.81138E+02</wgt>
<wgt id='2033'>0.80980E+02</wgt>
<wgt id='2034'>0.80868E+02</wgt>
<wgt id='2035'>0.81118E+02</wgt>
<wgt id='2036'>0.81329E+02</wgt>
<wgt id='2037'>0.81069E+02</wgt>
<wgt id='2038'>0.80976E+02</wgt>
<wgt id='2039'>0.81078E+02</wgt>
<wgt id='2040'>0.81027E+02</wgt>
<wgt id='2041'>0.81029E+02</wgt>
<wgt id='2042'>0.81211E+02</wgt>
<wgt id='2043'>0.81044E+02</wgt>
<wgt id='2044'>0.81211E+02</wgt>
<wgt id='2045'>0.81088E+02</wgt>
<wgt id='2046'>0.81081E+02</wgt>
<wgt id='2047'>0.81097E+02</wgt>
<wgt id='2048'>0.81079E+02</wgt>
<wgt id='2049'>0.81018E+02</wgt>
<wgt id='2050'>0.81049E+02</wgt>
<wgt id='2051'>0.81086E+02</wgt>
<wgt id='2052'>0.81211E+02</wgt>
<wgt id='2053'>0.81098E+02</wgt>
<wgt id='2054'>0.81092E+02</wgt>
<wgt id='2055'>0.81098E+02</wgt>
<wgt id='2056'>0.81021E+02</wgt>
<wgt id='2057'>0.81136E+02</wgt>
<wgt id='2058'>0.81146E+02</wgt>
<wgt id='2059'>0.81089E+02</wgt>
<wgt id='2060'>0.81103E+02</wgt>
<wgt id='2061'>0.81076E+02</wgt>
<wgt id='2062'>0.81179E+02</wgt>
<wgt id='2063'>0.81127E+02</wgt>
<wgt id='2064'>0.81108E+02</wgt>
<wgt id='2065'>0.81199E+02</wgt>
<wgt id='2066'>0.81071E+02</wgt>
<wgt id='2067'>0.81115E+02</wgt>
<wgt id='2068'>0.81129E+02</wgt>
<wgt id='2069'>0.81101E+02</wgt>
<wgt id='2070'>0.81116E+02</wgt>
<wgt id='2071'>0.81086E+02</wgt>
<wgt id='2072'>0.81100E+02</wgt>
<wgt id='2073'>0.81120E+02</wgt>
<wgt id='2074'>0.81078E+02</wgt>
<wgt id='2075'>0.81088E+02</wgt>
<wgt id='2076'>0.81082E+02</wgt>
<wgt id='2077'>0.81152E+02</wgt>
<wgt id='2078'>0.81123E+02</wgt>
<wgt id='2079'>0.81081E+02</wgt>
<wgt id='2080'>0.81118E+02</wgt>
<wgt id='2081'>0.81096E+02</wgt>
<wgt id='2082'>0.81112E+02</wgt>
<wgt id='2083'>0.81150E+02</wgt>
<wgt id='2084'>0.81104E+02</wgt>
<wgt id='2085'>0.81111E+02</wgt>
<wgt id='2086'>0.81091E+02</wgt>
<wgt id='2087'>0.81115E+02</wgt>
<wgt id='2088'>0.81094E+02</wgt>
<wgt id='2089'>0.81083E+02</wgt>
<wgt id='2090'>0.81124E+02</wgt>
<wgt id='2091'>0.81102E+02</wgt>
<wgt id='2092'>0.81135E+02</wgt>
<wgt id='2093'>0.81083E+02</wgt>
<wgt id='2094'>0.81118E+02</wgt>
<wgt id='2095'>0.81130E+02</wgt>
<wgt id='2096'>0.81089E+02</wgt>
<wgt id='2097'>0.81123E+02</wgt>
<wgt id='2098'>0.81096E+02</wgt>
<wgt id='2099'>0.81119E+02</wgt>
<wgt id='2100'>0.81104E+02</wgt>
<wgt id='2101'>0.78301E+02</wgt>
<wgt id='2102'>0.84543E+02</wgt>
<wgt id='2200'>0.81277E+02</wgt>
<wgt id='2201'>0.66808E+02</wgt>
<wgt id='2202'>0.69787E+02</wgt>
<wgt id='2203'>0.72535E+02</wgt>
<wgt id='2204'>0.74996E+02</wgt>
<wgt id='2205'>0.79725E+02</wgt>
<wgt id='2206'>0.82852E+02</wgt>
<wgt id='2207'>0.87477E+02</wgt>
<wgt id='2208'>0.90634E+02</wgt>
<wgt id='2300'>0.85726E+02</wgt>
<wgt id='2301'>0.85715E+02</wgt>
<wgt id='2302'>0.85751E+02</wgt>
<wgt id='2303'>0.85541E+02</wgt>
<wgt id='2304'>0.85962E+02</wgt>
<wgt id='2305'>0.85559E+02</wgt>
<wgt id='2306'>0.85600E+02</wgt>
<wgt id='2307'>0.85707E+02</wgt>
<wgt id='2308'>0.85803E+02</wgt>
<wgt id='2309'>0.85886E+02</wgt>
<wgt id='2310'>0.85728E+02</wgt>
<wgt id='2311'>0.85496E+02</wgt>
<wgt id='2312'>0.85489E+02</wgt>
<wgt id='2313'>0.86156E+02</wgt>
<wgt id='2314'>0.85514E+02</wgt>
<wgt id='2315'>0.85470E+02</wgt>
<wgt id='2316'>0.85727E+02</wgt>
<wgt id='2317'>0.85454E+02</wgt>
<wgt id='2318'>0.85734E+02</wgt>
<wgt id='2319'>0.86084E+02</wgt>
<wgt id='2320'>0.85913E+02</wgt>
<wgt id='2321'>0.86004E+02</wgt>
<wgt id='2322'>0.85733E+02</wgt>
<wgt id='2323'>0.85781E+02</wgt>
<wgt id='2324'>0.85717E+02</wgt>
<wgt id='2325'>0.85863E+02</wgt>
<wgt id='2326'>0.85607E+02</wgt>
<wgt id='2327'>0.85780E+02</wgt>
<wgt id='2328'>0.85583E+02</wgt>
<wgt id='2329'>0.85342E+02</wgt>
<wgt id='2330'>0.86422E+02</wgt>
<wgt id='2331'>0.86080E+02</wgt>
<wgt id='2332'>0.85708E+02</wgt>
<wgt id='2333'>0.85910E+02</wgt>
<wgt id='2334'>0.85706E+02</wgt>
<wgt id='2335'>0.86137E+02</wgt>
<wgt id='2336'>0.85886E+02</wgt>
<wgt id='2337'>0.85719E+02</wgt>
<wgt id='2338'>0.85768E+02</wgt>
<wgt id='2339'>0.85850E+02</wgt>
<wgt id='2340'>0.85641E+02</wgt>
<wgt id='2341'>0.85780E+02</wgt>
<wgt id='2342'>0.85529E+02</wgt>
<wgt id='2343'>0.85478E+02</wgt>
<wgt id='2344'>0.85847E+02</wgt>
<wgt id='2345'>0.85862E+02</wgt>
<wgt id='2346'>0.85907E+02</wgt>
<wgt id='2347'>0.85711E+02</wgt>
<wgt id='2348'>0.85789E+02</wgt>
<wgt id='2349'>0.85671E+02</wgt>
<wgt id='2350'>0.85603E+02</wgt>
<wgt id='2351'>0.85961E+02</wgt>
<wgt id='2352'>0.85657E+02</wgt>
<wgt id='2353'>0.85687E+02</wgt>
<wgt id='2354'>0.85742E+02</wgt>
<wgt id='2355'>0.85671E+02</wgt>
<wgt id='2356'>0.85749E+02</wgt>
<wgt id='2357'>0.85708E+02</wgt>
<wgt id='2358'>0.85654E+02</wgt>
<wgt id='2359'>0.85731E+02</wgt>
<wgt id='2360'>0.85772E+02</wgt>
<wgt id='2361'>0.85772E+02</wgt>
<wgt id='2362'>0.85746E+02</wgt>
<wgt id='2363'>0.85759E+02</wgt>
<wgt id='2364'>0.85699E+02</wgt>
<wgt id='2365'>0.85721E+02</wgt>
<wgt id='2366'>0.85754E+02</wgt>
<wgt id='2367'>0.85659E+02</wgt>
<wgt id='2368'>0.85745E+02</wgt>
<wgt id='2369'>0.85667E+02</wgt>
<wgt id='2370'>0.85704E+02</wgt>
<wgt id='2371'>0.85719E+02</wgt>
<wgt id='2372'>0.85750E+02</wgt>
<wgt id='2373'>0.85697E+02</wgt>
<wgt id='2374'>0.85798E+02</wgt>
<wgt id='2375'>0.85741E+02</wgt>
<wgt id='2376'>0.85735E+02</wgt>
<wgt id='2377'>0.85732E+02</wgt>
<wgt id='2378'>0.85770E+02</wgt>
<wgt id='2379'>0.85690E+02</wgt>
<wgt id='2380'>0.85695E+02</wgt>
<wgt id='2381'>0.85709E+02</wgt>
<wgt id='2382'>0.85697E+02</wgt>
<wgt id='2383'>0.85737E+02</wgt>
<wgt id='2384'>0.85711E+02</wgt>
<wgt id='2385'>0.85748E+02</wgt>
<wgt id='2386'>0.85719E+02</wgt>
<wgt id='2387'>0.85711E+02</wgt>
<wgt id='2388'>0.85709E+02</wgt>
<wgt id='2389'>0.85732E+02</wgt>
<wgt id='2390'>0.85726E+02</wgt>
<wgt id='2391'>0.85715E+02</wgt>
<wgt id='2392'>0.85723E+02</wgt>
<wgt id='2393'>0.85738E+02</wgt>
<wgt id='2394'>0.85743E+02</wgt>
<wgt id='2395'>0.85734E+02</wgt>
<wgt id='2396'>0.85706E+02</wgt>
<wgt id='2397'>0.85702E+02</wgt>
<wgt id='2398'>0.85713E+02</wgt>
<wgt id='2399'>0.85743E+02</wgt>
<wgt id='2400'>0.85736E+02</wgt>
<wgt id='2401'>0.82476E+02</wgt>
<wgt id='2402'>0.88793E+02</wgt>
<wgt id='2500'>0.82322E+02</wgt>
<wgt id='2501'>0.88944E+02</wgt>
<wgt id='2600'>0.77878E+02</wgt>
<wgt id='2601'>0.77877E+02</wgt>
<wgt id='2602'>0.77731E+02</wgt>
<wgt id='2603'>0.77853E+02</wgt>
<wgt id='2604'>0.77734E+02</wgt>
<wgt id='2605'>0.77773E+02</wgt>
<wgt id='2606'>0.77919E+02</wgt>
<wgt id='2607'>0.77809E+02</wgt>
<wgt id='2608'>0.77956E+02</wgt>
<wgt id='2609'>0.77728E+02</wgt>
<wgt id='2610'>0.77815E+02</wgt>
<wgt id='2611'>0.77799E+02</wgt>
<wgt id='2612'>0.78061E+02</wgt>
<wgt id='2613'>0.77830E+02</wgt>
<wgt id='2614'>0.77802E+02</wgt>
<wgt id='2615'>0.77589E+02</wgt>
<wgt id='2616'>0.77853E+02</wgt>
<wgt id='2617'>0.77589E+02</wgt>
<wgt id='2618'>0.77616E+02</wgt>
<wgt id='2619'>0.77973E+02</wgt>
<wgt id='2620'>0.77828E+02</wgt>
<wgt id='2621'>0.77903E+02</wgt>
<wgt id='2622'>0.78229E+02</wgt>
<wgt id='2623'>0.77869E+02</wgt>
<wgt id='2624'>0.77882E+02</wgt>
<wgt id='2625'>0.77777E+02</wgt>
<wgt id='2626'>0.77850E+02</wgt>
<wgt id='2627'>0.77855E+02</wgt>
<wgt id='2628'>0.77906E+02</wgt>
<wgt id='2629'>0.77892E+02</wgt>
<wgt id='2630'>0.77920E+02</wgt>
<wgt id='2631'>0.77774E+02</wgt>
<wgt id='2632'>0.77890E+02</wgt>
<wgt id='2633'>0.77834E+02</wgt>
<wgt id='2634'>0.77812E+02</wgt>
<wgt id='2635'>0.77860E+02</wgt>
<wgt id='2636'>0.77857E+02</wgt>
<wgt id='2637'>0.77889E+02</wgt>
<wgt id='2638'>0.77913E+02</wgt>
<wgt id='2639'>0.77879E+02</wgt>
<wgt id='2640'>0.77869E+02</wgt>
<wgt id='2641'>0.77902E+02</wgt>
<wgt id='2642'>0.77894E+02</wgt>
<wgt id='2643'>0.77878E+02</wgt>
<wgt id='2644'>0.77870E+02</wgt>
<wgt id='2645'>0.77877E+02</wgt>
<wgt id='2646'>0.77891E+02</wgt>
<wgt id='2647'>0.77878E+02</wgt>
<wgt id='2648'>0.77874E+02</wgt>
<wgt id='2649'>0.77882E+02</wgt>
<wgt id='2650'>0.77880E+02</wgt>
<wgt id='2651'>0.76119E+02</wgt>
<wgt id='2652'>0.79491E+02</wgt>
<wgt id='2700'>0.74479E+02</wgt>
<wgt id='2701'>0.76119E+02</wgt>
<wgt id='2702'>0.77062E+02</wgt>
<wgt id='2703'>0.78588E+02</wgt>
<wgt id='2704'>0.79491E+02</wgt>
<wgt id='2705'>0.81082E+02</wgt>
<wgt id='2800'>0.79665E+02</wgt>
<wgt id='4000'>0.81950E+02</wgt>
<wgt id='4001'>0.82366E+02</wgt>
<wgt id='4002'>0.82026E+02</wgt>
<wgt id='4003'>0.81680E+02</wgt>
<wgt id='4004'>0.82516E+02</wgt>
<wgt id='4005'>0.82029E+02</wgt>
<wgt id='4006'>0.82139E+02</wgt>
<wgt id='4007'>0.82778E+02</wgt>
<wgt id='4008'>0.81214E+02</wgt>
<wgt id='4009'>0.82150E+02</wgt>
<wgt id='4010'>0.81569E+02</wgt>
<wgt id='4011'>0.82410E+02</wgt>
<wgt id='4012'>0.81527E+02</wgt>
<wgt id='4013'>0.82707E+02</wgt>
<wgt id='4014'>0.81391E+02</wgt>
<wgt id='4015'>0.81363E+02</wgt>
<wgt id='4016'>0.83355E+02</wgt>
<wgt id='4017'>0.81930E+02</wgt>
<wgt id='4018'>0.82031E+02</wgt>
<wgt id='4019'>0.82422E+02</wgt>
<wgt id='4020'>0.81397E+02</wgt>
<wgt id='4021'>0.82208E+02</wgt>
<wgt id='4022'>0.81503E+02</wgt>
<wgt id='4023'>0.82666E+02</wgt>
<wgt id='4024'>0.81800E+02</wgt>
<wgt id='4025'>0.82070E+02</wgt>
<wgt id='4026'>0.81840E+02</wgt>
<wgt id='4027'>0.82385E+02</wgt>
<wgt id='4028'>0.81770E+02</wgt>
<wgt id='4029'>0.82427E+02</wgt>
<wgt id='4030'>0.80820E+02</wgt>
<wgt id='4031'>0.81324E+02</wgt>
<wgt id='4032'>0.83883E+02</wgt>
<wgt id='4033'>0.82835E+02</wgt>
<wgt id='4034'>0.80736E+02</wgt>
<wgt id='4035'>0.83647E+02</wgt>
<wgt id='4036'>0.80781E+02</wgt>
<wgt id='4037'>0.84403E+02</wgt>
<wgt id='4038'>0.80285E+02</wgt>
<wgt id='4039'>0.83957E+02</wgt>
<wgt id='4040'>0.80066E+02</wgt>
<wgt id='4041'>0.82168E+02</wgt>
<wgt id='4042'>0.81572E+02</wgt>
<wgt id='4043'>0.81207E+02</wgt>
<wgt id='4044'>0.81392E+02</wgt>
<wgt id='4045'>0.82697E+02</wgt>
<wgt id='4046'>0.81680E+02</wgt>
<wgt id='4047'>0.81619E+02</wgt>
<wgt id='4048'>0.82399E+02</wgt>
<wgt id='4049'>0.82204E+02</wgt>
<wgt id='4050'>0.81853E+02</wgt>
<wgt id='4051'>0.82537E+02</wgt>
<wgt id='4052'>0.81640E+02</wgt>
<wgt id='4053'>0.82166E+02</wgt>
<wgt id='4054'>0.81005E+02</wgt>
<wgt id='4055'>0.82557E+02</wgt>
<wgt id='4056'>0.81506E+02</wgt>
<wgt id='4057'>0.81056E+02</wgt>
<wgt id='4058'>0.82486E+02</wgt>
<wgt id='4100'>0.81855E+02</wgt>
<wgt id='4101'>0.81893E+02</wgt>
<wgt id='4102'>0.82009E+02</wgt>
<wgt id='4103'>0.82059E+02</wgt>
<wgt id='4200'>0.78639E+02</wgt>
<wgt id='4201'>0.78699E+02</wgt>
<wgt id='4202'>0.78968E+02</wgt>
<wgt id='4203'>0.77828E+02</wgt>
<wgt id='4204'>0.79197E+02</wgt>
<wgt id='4205'>0.78464E+02</wgt>
<wgt id='4206'>0.79163E+02</wgt>
<wgt id='4207'>0.78975E+02</wgt>
<wgt id='4208'>0.78526E+02</wgt>
<wgt id='4209'>0.78877E+02</wgt>
<wgt id='4210'>0.78670E+02</wgt>
<wgt id='4211'>0.79734E+02</wgt>
<wgt id='4212'>0.77823E+02</wgt>
<wgt id='4213'>0.78973E+02</wgt>
<wgt id='4214'>0.78146E+02</wgt>
<wgt id='4215'>0.78590E+02</wgt>
<wgt id='4216'>0.78736E+02</wgt>
<wgt id='4217'>0.78345E+02</wgt>
<wgt id='4218'>0.78833E+02</wgt>
<wgt id='4219'>0.77480E+02</wgt>
<wgt id='4220'>0.79860E+02</wgt>
<wgt id='4221'>0.78011E+02</wgt>
<wgt id='4222'>0.79624E+02</wgt>
<wgt id='4223'>0.78300E+02</wgt>
<wgt id='4224'>0.77948E+02</wgt>
<wgt id='4225'>0.77509E+02</wgt>
<wgt id='4226'>0.80090E+02</wgt>
<wgt id='4227'>0.79765E+02</wgt>
<wgt id='4228'>0.77726E+02</wgt>
<wgt id='4229'>0.76909E+02</wgt>
<wgt id='4230'>0.79978E+02</wgt>
<wgt id='4231'>0.79024E+02</wgt>
<wgt id='4232'>0.78013E+02</wgt>
<wgt id='4233'>0.78922E+02</wgt>
<wgt id='4234'>0.77793E+02</wgt>
<wgt id='4235'>0.79346E+02</wgt>
<wgt id='4236'>0.78084E+02</wgt>
<wgt id='4237'>0.79368E+02</wgt>
<wgt id='4238'>0.77285E+02</wgt>
<wgt id='4239'>0.78241E+02</wgt>
<wgt id='4240'>0.78009E+02</wgt>
<wgt id='4241'>0.78681E+02</wgt>
<wgt id='4242'>0.78564E+02</wgt>
<wgt id='4243'>0.78577E+02</wgt>
<wgt id='4244'>0.79231E+02</wgt>
<wgt id='4245'>0.78310E+02</wgt>
<wgt id='4246'>0.78680E+02</wgt>
<wgt id='4247'>0.78230E+02</wgt>
<wgt id='4248'>0.78732E+02</wgt>
<wgt id='4249'>0.80224E+02</wgt>
<wgt id='4250'>0.76900E+02</wgt>
<wgt id='4251'>0.79268E+02</wgt>
<wgt id='4252'>0.78196E+02</wgt>
<wgt id='4253'>0.78797E+02</wgt>
<wgt id='4254'>0.78255E+02</wgt>
<wgt id='4255'>0.79832E+02</wgt>
<wgt id='4256'>0.78023E+02</wgt>
<wgt id='4257'>0.77175E+02</wgt>
<wgt id='4258'>0.79047E+02</wgt>
<wgt id='4300'>0.81161E+02</wgt>
<wgt id='4301'>0.80476E+02</wgt>
<wgt id='5000'>0.81563E+02</wgt>
<wgt id='5001'>0.81625E+02</wgt>
<wgt id='5002'>0.81484E+02</wgt>
<wgt id='5003'>0.81581E+02</wgt>
<wgt id='5004'>0.81547E+02</wgt>
<wgt id='5005'>0.81597E+02</wgt>
<wgt id='5006'>0.81508E+02</wgt>
<wgt id='5007'>0.81653E+02</wgt>
<wgt id='5008'>0.81490E+02</wgt>
<wgt id='5009'>0.81706E+02</wgt>
<wgt id='5010'>0.81416E+02</wgt>
<wgt id='5011'>0.81805E+02</wgt>
<wgt id='5012'>0.81330E+02</wgt>
<wgt id='5013'>0.81737E+02</wgt>
<wgt id='5014'>0.81440E+02</wgt>
<wgt id='5015'>0.81125E+02</wgt>
<wgt id='5016'>0.81125E+02</wgt>
<wgt id='5017'>0.81945E+02</wgt>
<wgt id='5018'>0.81306E+02</wgt>
<wgt id='5019'>0.81813E+02</wgt>
<wgt id='5020'>0.81220E+02</wgt>
<wgt id='5021'>0.81630E+02</wgt>
<wgt id='5022'>0.81462E+02</wgt>
<wgt id='5023'>0.81528E+02</wgt>
<wgt id='5024'>0.81647E+02</wgt>
<wgt id='5025'>0.81415E+02</wgt>
<wgt id='5026'>0.81725E+02</wgt>
<wgt id='5027'>0.81633E+02</wgt>
<wgt id='5028'>0.81375E+02</wgt>
<wgt id='5029'>0.82746E+02</wgt>
<wgt id='5030'>0.80900E+02</wgt>
<wgt id='5031'>0.80889E+02</wgt>
<wgt id='5032'>0.83647E+02</wgt>
<wgt id='5033'>0.81493E+02</wgt>
<wgt id='5034'>0.81639E+02</wgt>
<wgt id='5035'>0.81582E+02</wgt>
<wgt id='5036'>0.81540E+02</wgt>
<wgt id='5037'>0.81261E+02</wgt>
<wgt id='5038'>0.81733E+02</wgt>
<wgt id='5039'>0.81762E+02</wgt>
<wgt id='5040'>0.81064E+02</wgt>
<wgt id='5041'>0.81329E+02</wgt>
<wgt id='5042'>0.81790E+02</wgt>
<wgt id='5043'>0.81836E+02</wgt>
<wgt id='5044'>0.81346E+02</wgt>
<wgt id='5045'>0.81430E+02</wgt>
<wgt id='5046'>0.82099E+02</wgt>
<wgt id='5047'>0.81649E+02</wgt>
<wgt id='5048'>0.81187E+02</wgt>
<wgt id='5049'>0.81511E+02</wgt>
<wgt id='5050'>0.81724E+02</wgt>
<wgt id='5051'>0.81756E+02</wgt>
<wgt id='5052'>0.81444E+02</wgt>
<wgt id='5053'>0.81733E+02</wgt>
<wgt id='5054'>0.81791E+02</wgt>
<wgt id='5055'>0.81568E+02</wgt>
<wgt id='5056'>0.81629E+02</wgt>
<wgt id='5057'>0.81217E+02</wgt>
<wgt id='5058'>0.81808E+02</wgt>
<wgt id='5059'>0.81478E+02</wgt>
<wgt id='5060'>0.81616E+02</wgt>
<wgt id='5061'>0.81980E+02</wgt>
<wgt id='5062'>0.81707E+02</wgt>
<wgt id='5063'>0.81977E+02</wgt>
<wgt id='5064'>0.81526E+02</wgt>
<wgt id='5100'>0.81563E+02</wgt>
<wgt id='5101'>0.81538E+02</wgt>
<wgt id='6000'>0.81098E+02</wgt>
<wgt id='6001'>0.80931E+02</wgt>
<wgt id='6002'>0.80657E+02</wgt>
<wgt id='6003'>0.80887E+02</wgt>
<wgt id='6004'>0.81359E+02</wgt>
<wgt id='6005'>0.80674E+02</wgt>
<wgt id='6006'>0.81270E+02</wgt>
<wgt id='6007'>0.80707E+02</wgt>
<wgt id='6008'>0.81710E+02</wgt>
<wgt id='6009'>0.81140E+02</wgt>
<wgt id='6010'>0.79949E+02</wgt>
<wgt id='6011'>0.81067E+02</wgt>
<wgt id='6012'>0.81357E+02</wgt>
<wgt id='6013'>0.80765E+02</wgt>
<wgt id='6014'>0.80829E+02</wgt>
<wgt id='6015'>0.80363E+02</wgt>
<wgt id='6016'>0.81393E+02</wgt>
<wgt id='6017'>0.80851E+02</wgt>
<wgt id='6018'>0.80626E+02</wgt>
<wgt id='6019'>0.81158E+02</wgt>
<wgt id='6020'>0.81247E+02</wgt>
<wgt id='6021'>0.81051E+02</wgt>
<wgt id='6022'>0.81290E+02</wgt>
<wgt id='6023'>0.81081E+02</wgt>
<wgt id='6024'>0.81197E+02</wgt>
<wgt id='6025'>0.81489E+02</wgt>
<wgt id='6026'>0.81015E+02</wgt>
<wgt id='6027'>0.81087E+02</wgt>
<wgt id='6028'>0.80799E+02</wgt>
<wgt id='6029'>0.80862E+02</wgt>
<wgt id='6030'>0.80923E+02</wgt>
<wgt id='6031'>0.80852E+02</wgt>
<wgt id='6032'>0.81112E+02</wgt>
<wgt id='6033'>0.80976E+02</wgt>
<wgt id='6034'>0.81433E+02</wgt>
<wgt id='6035'>0.81167E+02</wgt>
<wgt id='6036'>0.81807E+02</wgt>
<wgt id='6037'>0.81093E+02</wgt>
<wgt id='6038'>0.81114E+02</wgt>
<wgt id='6039'>0.81330E+02</wgt>
<wgt id='6040'>0.81058E+02</wgt>
<wgt id='6041'>0.79174E+02</wgt>
<wgt id='6042'>0.82292E+02</wgt>
<wgt id='7000'>0.80405E+02</wgt>
<wgt id='7001'>0.79726E+02</wgt>
<wgt id='7002'>0.79918E+02</wgt>
<wgt id='7003'>0.79754E+02</wgt>
<wgt id='7004'>0.79890E+02</wgt>
<wgt id='7005'>0.79871E+02</wgt>
<wgt id='7006'>0.79773E+02</wgt>
<wgt id='7007'>0.80360E+02</wgt>
<wgt id='7008'>0.79300E+02</wgt>
<wgt id='7009'>0.79319E+02</wgt>
<wgt id='7010'>0.80341E+02</wgt>
<wgt id='7011'>0.80119E+02</wgt>
<wgt id='7012'>0.79531E+02</wgt>
<wgt id='7013'>0.79769E+02</wgt>
<wgt id='7014'>0.79866E+02</wgt>
<wgt id='7015'>0.79869E+02</wgt>
<wgt id='7016'>0.79524E+02</wgt>
<wgt id='7017'>0.79822E+02</wgt>
<wgt id='7018'>0.79835E+02</wgt>
<wgt id='7019'>0.79839E+02</wgt>
<wgt id='7020'>0.79824E+02</wgt>
<wgt id='7021'>0.80663E+02</wgt>
<wgt id='7022'>0.79028E+02</wgt>
<wgt id='7023'>0.79047E+02</wgt>
<wgt id='7024'>0.80621E+02</wgt>
<wgt id='7025'>0.78321E+02</wgt>
<wgt id='7026'>0.81326E+02</wgt>
<wgt id='7027'>0.79145E+02</wgt>
<wgt id='7028'>0.80543E+02</wgt>
<wgt id='8000'>0.80622E+02</wgt>
<wgt id='8001'>0.80614E+02</wgt>
<wgt id='8002'>0.80646E+02</wgt>
<wgt id='8003'>0.80621E+02</wgt>
<wgt id='8004'>0.80620E+02</wgt>
<wgt id='8005'>0.80493E+02</wgt>
<wgt id='8006'>0.80766E+02</wgt>
<wgt id='8007'>0.80895E+02</wgt>
<wgt id='8008'>0.80813E+02</wgt>
<wgt id='8009'>0.80970E+02</wgt>
<wgt id='8010'>0.80496E+02</wgt>
<wgt id='8011'>0.80667E+02</wgt>
<wgt id='8012'>0.80243E+02</wgt>
<wgt id='8013'>0.80388E+02</wgt>
<wgt id='8014'>0.80919E+02</wgt>
<wgt id='8015'>0.80576E+02</wgt>
<wgt id='8016'>0.80738E+02</wgt>
<wgt id='8017'>0.80689E+02</wgt>
<wgt id='8018'>0.80947E+02</wgt>
<wgt id='8019'>0.80567E+02</wgt>
<wgt id='8020'>0.80790E+02</wgt>
<wgt id='8021'>0.80492E+02</wgt>
<wgt id='8022'>0.80920E+02</wgt>
<wgt id='8023'>0.80389E+02</wgt>
<wgt id='8024'>0.80087E+02</wgt>
<wgt id='8025'>0.80316E+02</wgt>
<wgt id='8026'>0.80666E+02</wgt>
<wgt id='8027'>0.80793E+02</wgt>
<wgt id='8028'>0.80661E+02</wgt>
<wgt id='8029'>0.81194E+02</wgt>
<wgt id='3000'>0.81104E+02</wgt>
<wgt id='3001'>0.82302E+02</wgt>
<wgt id='3002'>0.79666E+02</wgt>
<wgt id='3003'>0.80092E+02</wgt>
<wgt id='3004'>0.82201E+02</wgt>
<wgt id='3005'>0.81333E+02</wgt>
<wgt id='3006'>0.84405E+02</wgt>
<wgt id='3007'>0.80648E+02</wgt>
<wgt id='3008'>0.80330E+02</wgt>
<wgt id='3009'>0.80170E+02</wgt>
<wgt id='3010'>0.83042E+02</wgt>
<wgt id='3011'>0.81339E+02</wgt>
<wgt id='3012'>0.82894E+02</wgt>
<wgt id='3013'>0.79778E+02</wgt>
<wgt id='3014'>0.81733E+02</wgt>
<wgt id='3015'>0.77954E+02</wgt>
<wgt id='3016'>0.80707E+02</wgt>
<wgt id='3017'>0.82442E+02</wgt>
<wgt id='3018'>0.81324E+02</wgt>
<wgt id='3019'>0.78622E+02</wgt>
<wgt id='3020'>0.79167E+02</wgt>
<wgt id='3021'>0.79273E+02</wgt>
<wgt id='3022'>0.78058E+02</wgt>
<wgt id='3023'>0.79179E+02</wgt>
<wgt id='3024'>0.81455E+02</wgt>
<wgt id='3025'>0.80078E+02</wgt>
<wgt id='3026'>0.79536E+02</wgt>
<wgt id='3027'>0.79033E+02</wgt>
<wgt id='3028'>0.81545E+02</wgt>
<wgt id='3029'>0.81844E+02</wgt>
<wgt id='3030'>0.81593E+02</wgt>
<wgt id='3031'>0.81310E+02</wgt>
<wgt id='3032'>0.82318E+02</wgt>
<wgt id='3033'>0.80456E+02</wgt>
<wgt id='3034'>0.83811E+02</wgt>
<wgt id='3035'>0.79540E+02</wgt>
<wgt id='3036'>0.81062E+02</wgt>
<wgt id='3037'>0.79201E+02</wgt>
<wgt id='3038'>0.81094E+02</wgt>
<wgt id='3039'>0.80152E+02</wgt>
<wgt id='3040'>0.81678E+02</wgt>
<wgt id='3041'>0.81202E+02</wgt>
<wgt id='3042'>0.83587E+02</wgt>
<wgt id='3043'>0.82110E+02</wgt>
<wgt id='3044'>0.82975E+02</wgt>
<wgt id='3045'>0.81400E+02</wgt>
<wgt id='3046'>0.81729E+02</wgt>
<wgt id='3047'>0.82012E+02</wgt>
<wgt id='3048'>0.81989E+02</wgt>
<wgt id='3049'>0.79224E+02</wgt>
<wgt id='3050'>0.81190E+02</wgt>
<wgt id='3051'>0.81200E+02</wgt>
<wgt id='3052'>0.80011E+02</wgt>
<wgt id='3053'>0.80750E+02</wgt>
<wgt id='3054'>0.80439E+02</wgt>
<wgt id='3055'>0.81420E+02</wgt>
<wgt id='3056'>0.81380E+02</wgt>
<wgt id='3057'>0.79981E+02</wgt>
<wgt id='3058'>0.81078E+02</wgt>
<wgt id='3059'>0.80176E+02</wgt>
<wgt id='3060'>0.80825E+02</wgt>
<wgt id='3061'>0.80727E+02</wgt>
<wgt id='3062'>0.81118E+02</wgt>
<wgt id='3063'>0.79996E+02</wgt>
<wgt id='3064'>0.82317E+02</wgt>
<wgt id='3065'>0.79990E+02</wgt>
<wgt id='3066'>0.82607E+02</wgt>
<wgt id='3067'>0.80738E+02</wgt>
<wgt id='3068'>0.80287E+02</wgt>
<wgt id='3069'>0.81836E+02</wgt>
<wgt id='3070'>0.82080E+02</wgt>
<wgt id='3071'>0.80008E+02</wgt>
<wgt id='3072'>0.77678E+02</wgt>
<wgt id='3073'>0.81366E+02</wgt>
<wgt id='3074'>0.79302E+02</wgt>
<wgt id='3075'>0.82159E+02</wgt>
<wgt id='3076'>0.81980E+02</wgt>
<wgt id='3077'>0.81618E+02</wgt>
<wgt id='3078'>0.79373E+02</wgt>
<wgt id='3079'>0.80368E+02</wgt>
<wgt id='3080'>0.84051E+02</wgt>
<wgt id='3081'>0.81893E+02</wgt>
<wgt id='3082'>0.80707E+02</wgt>
<wgt id='3083'>0.82225E+02</wgt>
<wgt id='3084'>0.80439E+02</wgt>
<wgt id='3085'>0.79478E+02</wgt>
<wgt id='3086'>0.83523E+02</wgt>
<wgt id='3087'>0.80543E+02</wgt>
<wgt id='3088'>0.83743E+02</wgt>
<wgt id='3089'>0.83760E+02</wgt>
<wgt id='3090'>0.83819E+02</wgt>
<wgt id='3091'>0.81534E+02</wgt>
<wgt id='3092'>0.81483E+02</wgt>
<wgt id='3093'>0.80820E+02</wgt>
<wgt id='3094'>0.82083E+02</wgt>
<wgt id='3095'>0.82587E+02</wgt>
<wgt id='3096'>0.80108E+02</wgt>
<wgt id='3097'>0.83527E+02</wgt>
<wgt id='3098'>0.82149E+02</wgt>
<wgt id='3099'>0.79633E+02</wgt>
<wgt id='3100'>0.80067E+02</wgt>
<wgt id='3200'>0.77965E+02</wgt>
<wgt id='3201'>0.78804E+02</wgt>
<wgt id='3202'>0.76218E+02</wgt>
<wgt id='3203'>0.78797E+02</wgt>
<wgt id='3204'>0.76935E+02</wgt>
<wgt id='3205'>0.78654E+02</wgt>
<wgt id='3206'>0.79112E+02</wgt>
<wgt id='3207'>0.79227E+02</wgt>
<wgt id='3208'>0.78567E+02</wgt>
<wgt id='3209'>0.77666E+02</wgt>
<wgt id='3210'>0.77925E+02</wgt>
<wgt id='3211'>0.77802E+02</wgt>
<wgt id='3212'>0.77355E+02</wgt>
<wgt id='3213'>0.78562E+02</wgt>
<wgt id='3214'>0.78397E+02</wgt>
<wgt id='3215'>0.78170E+02</wgt>
<wgt id='3216'>0.79654E+02</wgt>
<wgt id='3217'>0.78380E+02</wgt>
<wgt id='3218'>0.78388E+02</wgt>
<wgt id='3219'>0.77233E+02</wgt>
<wgt id='3220'>0.77934E+02</wgt>
<wgt id='3221'>0.78402E+02</wgt>
<wgt id='3222'>0.79934E+02</wgt>
<wgt id='3223'>0.77869E+02</wgt>
<wgt id='3224'>0.78129E+02</wgt>
<wgt id='3225'>0.79103E+02</wgt>
<wgt id='3226'>0.78201E+02</wgt>
<wgt id='3227'>0.77565E+02</wgt>
<wgt id='3228'>0.77345E+02</wgt>
<wgt id='3229'>0.78533E+02</wgt>
<wgt id='3230'>0.78397E+02</wgt>
<wgt id='3231'>0.78128E+02</wgt>
<wgt id='3232'>0.78203E+02</wgt>
<wgt id='3233'>0.79262E+02</wgt>
<wgt id='3234'>0.76844E+02</wgt>
<wgt id='3235'>0.77586E+02</wgt>
<wgt id='3236'>0.76922E+02</wgt>
<wgt id='3237'>0.77964E+02</wgt>
<wgt id='3238'>0.77174E+02</wgt>
<wgt id='3239'>0.77530E+02</wgt>
<wgt id='3240'>0.76431E+02</wgt>
<wgt id='3241'>0.78830E+02</wgt>
<wgt id='3242'>0.77824E+02</wgt>
<wgt id='3243'>0.77149E+02</wgt>
<wgt id='3244'>0.77796E+02</wgt>
<wgt id='3245'>0.77888E+02</wgt>
<wgt id='3246'>0.76476E+02</wgt>
<wgt id='3247'>0.78507E+02</wgt>
<wgt id='3248'>0.77763E+02</wgt>
<wgt id='3249'>0.76613E+02</wgt>
<wgt id='3250'>0.77998E+02</wgt>
<wgt id='3251'>0.77541E+02</wgt>
<wgt id='3252'>0.78652E+02</wgt>
<wgt id='3253'>0.77274E+02</wgt>
<wgt id='3254'>0.77066E+02</wgt>
<wgt id='3255'>0.77482E+02</wgt>
<wgt id='3256'>0.78601E+02</wgt>
<wgt id='3257'>0.77688E+02</wgt>
<wgt id='3258'>0.77708E+02</wgt>
<wgt id='3259'>0.77971E+02</wgt>
<wgt id='3260'>0.78678E+02</wgt>
<wgt id='3261'>0.78732E+02</wgt>
<wgt id='3262'>0.78263E+02</wgt>
<wgt id='3263'>0.80092E+02</wgt>
<wgt id='3264'>0.77531E+02</wgt>
<wgt id='3265'>0.77245E+02</wgt>
<wgt id='3266'>0.77964E+02</wgt>
<wgt id='3267'>0.77402E+02</wgt>
<wgt id='3268'>0.77527E+02</wgt>
<wgt id='3269'>0.78127E+02</wgt>
<wgt id='3270'>0.78244E+02</wgt>
<wgt id='3271'>0.78147E+02</wgt>
<wgt id='3272'>0.78270E+02</wgt>
<wgt id='3273'>0.77471E+02</wgt>
<wgt id='3274'>0.77414E+02</wgt>
<wgt id='3275'>0.78645E+02</wgt>
<wgt id='3276'>0.76593E+02</wgt>
<wgt id='3277'>0.77298E+02</wgt>
<wgt id='3278'>0.77984E+02</wgt>
<wgt id='3279'>0.78867E+02</wgt>
<wgt id='3280'>0.77913E+02</wgt>
<wgt id='3281'>0.78521E+02</wgt>
<wgt id='3282'>0.78084E+02</wgt>
<wgt id='3283'>0.78493E+02</wgt>
<wgt id='3284'>0.78311E+02</wgt>
<wgt id='3285'>0.77491E+02</wgt>
<wgt id='3286'>0.76767E+02</wgt>
<wgt id='3287'>0.78363E+02</wgt>
<wgt id='3288'>0.77601E+02</wgt>
<wgt id='3289'>0.78447E+02</wgt>
<wgt id='3290'>0.78445E+02</wgt>
<wgt id='3291'>0.76309E+02</wgt>
<wgt id='3292'>0.77765E+02</wgt>
<wgt id='3293'>0.78367E+02</wgt>
<wgt id='3294'>0.76596E+02</wgt>
<wgt id='3295'>0.77818E+02</wgt>
<wgt id='3296'>0.79180E+02</wgt>
<wgt id='3297'>0.77401E+02</wgt>
<wgt id='3298'>0.77197E+02</wgt>
<wgt id='3299'>0.78045E+02</wgt>
<wgt id='3300'>0.78936E+02</wgt>
<wgt id='3301'>0.76119E+02</wgt>
<wgt id='3302'>0.79491E+02</wgt>
<wgt id='3400'>0.78366E+02</wgt>
<wgt id='3401'>0.78565E+02</wgt>
<wgt id='3402'>0.76955E+02</wgt>
<wgt id='3403'>0.78768E+02</wgt>
<wgt id='3404'>0.79269E+02</wgt>
<wgt id='3405'>0.79397E+02</wgt>
<wgt id='3406'>0.78549E+02</wgt>
<wgt id='3407'>0.77651E+02</wgt>
<wgt id='3408'>0.79122E+02</wgt>
<wgt id='3409'>0.79651E+02</wgt>
<wgt id='3410'>0.79750E+02</wgt>
<wgt id='3411'>0.78826E+02</wgt>
<wgt id='3412'>0.78621E+02</wgt>
<wgt id='3413'>0.78217E+02</wgt>
<wgt id='3414'>0.78272E+02</wgt>
<wgt id='3415'>0.78304E+02</wgt>
<wgt id='3416'>0.78247E+02</wgt>
<wgt id='3417'>0.77604E+02</wgt>
<wgt id='3418'>0.77738E+02</wgt>
<wgt id='3419'>0.77380E+02</wgt>
<wgt id='3420'>0.78211E+02</wgt>
<wgt id='3421'>0.78774E+02</wgt>
<wgt id='3422'>0.77700E+02</wgt>
<wgt id='3423'>0.79349E+02</wgt>
<wgt id='3424'>0.78860E+02</wgt>
<wgt id='3425'>0.78882E+02</wgt>
<wgt id='3426'>0.77522E+02</wgt>
<wgt id='3427'>0.78270E+02</wgt>
<wgt id='3428'>0.78297E+02</wgt>
<wgt id='3429'>0.77715E+02</wgt>
<wgt id='3430'>0.77870E+02</wgt>
<wgt id='3431'>0.77857E+02</wgt>
<wgt id='3432'>0.77760E+02</wgt>
<wgt id='3433'>0.77825E+02</wgt>
<wgt id='3434'>0.79293E+02</wgt>
<wgt id='3435'>0.79626E+02</wgt>
<wgt id='3436'>0.77962E+02</wgt>
<wgt id='3437'>0.77940E+02</wgt>
<wgt id='3438'>0.77624E+02</wgt>
<wgt id='3439'>0.78075E+02</wgt>
<wgt id='3440'>0.78802E+02</wgt>
<wgt id='3441'>0.78552E+02</wgt>
<wgt id='3442'>0.77793E+02</wgt>
<wgt id='3443'>0.78588E+02</wgt>
<wgt id='3444'>0.78436E+02</wgt>
<wgt id='3445'>0.78017E+02</wgt>
<wgt id='3446'>0.79503E+02</wgt>
<wgt id='3447'>0.78383E+02</wgt>
<wgt id='3448'>0.79190E+02</wgt>
<wgt id='3449'>0.79708E+02</wgt>
<wgt id='3450'>0.78699E+02</wgt>
<wgt id='3451'>0.78259E+02</wgt>
<wgt id='3452'>0.78103E+02</wgt>
<wgt id='3453'>0.76804E+02</wgt>
<wgt id='3454'>0.78193E+02</wgt>
<wgt id='3455'>0.79059E+02</wgt>
<wgt id='3456'>0.78378E+02</wgt>
<wgt id='3457'>0.80202E+02</wgt>
<wgt id='3458'>0.78683E+02</wgt>
<wgt id='3459'>0.78587E+02</wgt>
<wgt id='3460'>0.78526E+02</wgt>
<wgt id='3461'>0.77773E+02</wgt>
<wgt id='3462'>0.78921E+02</wgt>
<wgt id='3463'>0.77859E+02</wgt>
<wgt id='3464'>0.78388E+02</wgt>
<wgt id='3465'>0.79272E+02</wgt>
<wgt id='3466'>0.79189E+02</wgt>
<wgt id='3467'>0.77807E+02</wgt>
<wgt id='3468'>0.79041E+02</wgt>
<wgt id='3469'>0.78229E+02</wgt>
<wgt id='3470'>0.77608E+02</wgt>
<wgt id='3471'>0.77788E+02</wgt>
<wgt id='3472'>0.77252E+02</wgt>
<wgt id='3473'>0.79296E+02</wgt>
<wgt id='3474'>0.78419E+02</wgt>
<wgt id='3475'>0.78847E+02</wgt>
<wgt id='3476'>0.77571E+02</wgt>
<wgt id='3477'>0.78312E+02</wgt>
<wgt id='3478'>0.80060E+02</wgt>
<wgt id='3479'>0.77625E+02</wgt>
<wgt id='3480'>0.77965E+02</wgt>
<wgt id='3481'>0.78006E+02</wgt>
<wgt id='3482'>0.79403E+02</wgt>
<wgt id='3483'>0.78061E+02</wgt>
<wgt id='3484'>0.78472E+02</wgt>
<wgt id='3485'>0.77694E+02</wgt>
<wgt id='3486'>0.77165E+02</wgt>
<wgt id='3487'>0.79062E+02</wgt>
<wgt id='3488'>0.77810E+02</wgt>
<wgt id='3489'>0.77690E+02</wgt>
<wgt id='3490'>0.80147E+02</wgt>
<wgt id='3491'>0.77987E+02</wgt>
<wgt id='3492'>0.78271E+02</wgt>
<wgt id='3493'>0.78044E+02</wgt>
<wgt id='3494'>0.75658E+02</wgt>
<wgt id='3495'>0.78776E+02</wgt>
<wgt id='3496'>0.77716E+02</wgt>
<wgt id='3497'>0.78274E+02</wgt>
<wgt id='3498'>0.78144E+02</wgt>
<wgt id='3499'>0.78000E+02</wgt>
<wgt id='3500'>0.78373E+02</wgt>
</rwgt>
</event>
</LesHouchesEvents>
